version 2
run HeterogeneousMicrogridNetwork-0-20180503-19:41:51-16299
attr configname HeterogeneousMicrogridNetwork
attr datetime 20180503-19:41:51
attr experiment HeterogeneousMicrogridNetwork
attr inifile omnetpp.ini
attr iterationvars ""
attr iterationvarsf ""
attr measurement ""
attr network HeterogeneousMicrogridNetwork
attr processid 16299
attr repetition 0
attr replication #0
attr resultdir results
attr runnumber 0
attr seedset 0

vector 0 HeterogeneousMicrogridNetwork.pico[0].queue queueLength:vector ETV
attr interpolationmode sample-hold
attr title "queue length, vector"
vector 1 HeterogeneousMicrogridNetwork.pico[0].queue averageThroughput:vector ETV
attr interpolationmode sample-hold
attr title "average throughput, vector"
vector 2 HeterogeneousMicrogridNetwork.pico[1].queue queueLength:vector ETV
attr interpolationmode sample-hold
attr title "queue length, vector"
vector 3 HeterogeneousMicrogridNetwork.pico[1].queue averageThroughput:vector ETV
attr interpolationmode sample-hold
attr title "average throughput, vector"
vector 4 HeterogeneousMicrogridNetwork.pico[2].queue queueLength:vector ETV
attr interpolationmode sample-hold
attr title "queue length, vector"
vector 5 HeterogeneousMicrogridNetwork.pico[2].queue averageThroughput:vector ETV
attr interpolationmode sample-hold
attr title "average throughput, vector"
vector 6 HeterogeneousMicrogridNetwork.pico[3].queue queueLength:vector ETV
attr interpolationmode sample-hold
attr title "queue length, vector"
vector 7 HeterogeneousMicrogridNetwork.pico[3].queue averageThroughput:vector ETV
attr interpolationmode sample-hold
attr title "average throughput, vector"
vector 8 HeterogeneousMicrogridNetwork.pico[0].queue queueingTime:vector ETV
attr interpolationmode none
attr title "queueing time at dequeue, vector"
attr unit s
vector 9 HeterogeneousMicrogridNetwork.pico[1].queue queueingTime:vector ETV
attr interpolationmode none
attr title "queueing time at dequeue, vector"
attr unit s
vector 10 HeterogeneousMicrogridNetwork.pico[2].queue queueingTime:vector ETV
attr interpolationmode none
attr title "queueing time at dequeue, vector"
attr unit s
vector 11 HeterogeneousMicrogridNetwork.pico[3].queue queueingTime:vector ETV
attr interpolationmode none
attr title "queueing time at dequeue, vector"
attr unit s
vector 12 HeterogeneousMicrogridNetwork.macro[0] timeSensitiveQueueMsgTime:vector ETV
attr interpolationmode sample-hold
attr title "timeSensitiveQueueMsgTime, vector"
vector 13 HeterogeneousMicrogridNetwork.macro[0] timeMediumQueueMsgTime:vector ETV
attr interpolationmode sample-hold
attr title "timeMediumQueueMsgTime, vector"
vector 14 HeterogeneousMicrogridNetwork.macro[0] timeTolerantQueueMsgTime:vector ETV
attr interpolationmode sample-hold
attr title "timeTolerantQueueMsgTime, vector"
0	0	0	0
0	101	0.1	1
0	102	0.1	2
0	103	0.1	3
0	104	0.1	4
0	105	0.1	5
0	301	0.6	6
0	302	0.6	7
0	303	0.6	8
0	304	0.6	9
0	305	0.6	10
0	455	1.1	9
0	509	1.1	10
0	510	1.1	11
0	511	1.1	12
0	512	1.1	13
0	513	1.1	14
0	613	1.3	13
0	671	1.5	12
0	729	1.6	13
0	730	1.6	14
0	731	1.6	15
0	732	1.6	16
0	733	1.6	17
0	779	1.7	16
0	837	1.9	15
0	899	2.1	14
0	953	2.1	15
0	954	2.1	16
0	955	2.1	17
0	956	2.1	18
0	957	2.1	19
0	1057	2.3	18
0	1115	2.5	17
0	1173	2.6	18
0	1174	2.6	19
0	1175	2.6	20
0	1176	2.6	21
0	1177	2.6	22
0	1223	2.7	21
0	1281	2.9	20
0	1343	3.1	19
0	1397	3.1	20
0	1398	3.1	21
0	1399	3.1	22
0	1400	3.1	23
0	1401	3.1	24
0	1501	3.3	23
0	1559	3.5	22
0	1617	3.6	23
0	1618	3.6	24
0	1619	3.6	25
0	1620	3.6	26
0	1621	3.6	27
0	1667	3.7	26
0	1725	3.9	25
0	1787	4.1	24
0	1841	4.1	25
0	1842	4.1	26
0	1843	4.1	27
0	1844	4.1	28
0	1845	4.1	29
0	1945	4.3	28
0	2003	4.5	27
0	2061	4.6	28
0	2062	4.6	29
0	2063	4.6	30
0	2064	4.6	31
0	2065	4.6	32
0	2111	4.7	31
0	2169	4.9	30
0	2231	5.1	29
0	2285	5.1	30
0	2286	5.1	31
0	2287	5.1	32
0	2288	5.1	33
0	2289	5.1	34
0	2389	5.3	33
0	2447	5.5	32
0	2505	5.6	33
0	2506	5.6	34
0	2507	5.6	35
0	2508	5.6	36
0	2509	5.6	37
0	2555	5.7	36
0	2613	5.9	35
0	2675	6.1	34
0	2729	6.1	35
0	2730	6.1	36
0	2731	6.1	37
0	2732	6.1	38
0	2733	6.1	39
0	2833	6.3	38
0	2891	6.5	37
0	2949	6.6	38
0	2950	6.6	39
0	2951	6.6	40
0	2952	6.6	41
0	2953	6.6	42
0	2999	6.7	41
0	3057	6.9	40
0	3119	7.1	39
0	3173	7.1	40
0	3174	7.1	41
0	3175	7.1	42
0	3176	7.1	43
0	3177	7.1	44
0	3277	7.3	43
0	3335	7.5	42
0	3393	7.6	43
0	3394	7.6	44
0	3395	7.6	45
0	3396	7.6	46
0	3397	7.6	47
0	3443	7.7	46
0	3501	7.9	45
0	3563	8.1	44
0	3617	8.1	45
0	3618	8.1	46
0	3619	8.1	47
0	3620	8.1	48
0	3621	8.1	49
0	3721	8.3	48
0	3779	8.5	47
0	3837	8.6	48
0	3838	8.6	49
0	3839	8.6	50
0	3840	8.6	51
0	3841	8.6	52
0	3887	8.7	51
0	3945	8.9	50
0	4007	9.1	49
0	4061	9.1	50
0	4062	9.1	51
0	4063	9.1	52
0	4064	9.1	53
0	4065	9.1	54
0	4165	9.3	53
0	4223	9.5	52
0	4281	9.6	53
0	4282	9.6	54
0	4283	9.6	55
0	4284	9.6	56
0	4285	9.6	57
0	4331	9.7	56
0	4389	9.9	55
0	4451	10.1	54
0	4505	10.1	55
0	4506	10.1	56
0	4507	10.1	57
0	4508	10.1	58
0	4509	10.1	59
0	4609	10.3	58
0	4667	10.5	57
0	4725	10.6	58
0	4726	10.6	59
0	4727	10.6	60
0	4728	10.6	61
0	4729	10.6	62
0	4775	10.7	61
0	4833	10.9	60
0	4895	11.1	59
0	4949	11.1	60
0	4950	11.1	61
0	4951	11.1	62
0	4952	11.1	63
0	4953	11.1	64
0	5053	11.3	63
0	5111	11.5	62
0	5169	11.6	63
0	5170	11.6	64
0	5171	11.6	65
0	5172	11.6	66
0	5173	11.6	67
0	5219	11.7	66
0	5277	11.9	65
0	5289	12.1	64
0	5297	12.3	63
0	5305	12.5	62
0	5313	12.7	61
0	5321	12.9	60
0	5329	13.1	59
0	5337	13.3	58
0	5345	13.5	57
0	5353	13.7	56
0	5361	13.9	55
0	5369	14.1	54
0	5377	14.3	53
0	5385	14.5	52
0	5393	14.7	51
0	5401	14.9	50
0	5409	15.1	49
0	5417	15.3	48
0	5425	15.5	47
0	5433	15.7	46
0	5441	15.9	45
0	5449	16.1	44
0	5457	16.3	43
0	5465	16.5	42
0	5473	16.7	41
0	5481	16.9	40
0	5489	17.1	39
0	5497	17.3	38
0	5505	17.5	37
0	5513	17.7	36
0	5521	17.9	35
0	5529	18.1	34
0	5537	18.3	33
0	5545	18.5	32
0	5553	18.7	31
0	5561	18.9	30
0	5569	19.1	29
0	5577	19.3	28
0	5585	19.5	27
0	5593	19.7	26
0	5601	19.9	25
0	5609	20.1	24
0	5617	20.3	23
0	5625	20.5	22
0	5633	20.7	21
0	5641	20.9	20
0	5649	21.1	19
0	5657	21.3	18
0	5665	21.5	17
0	5673	21.7	16
0	5681	21.9	15
0	5689	22.1	14
0	5697	22.3	13
0	5705	22.5	12
0	5713	22.7	11
0	5721	22.9	10
0	5729	23.1	9
0	5737	23.3	8
0	5745	23.5	7
0	5753	23.7	6
0	5761	23.9	5
0	5769	24.1	4
0	5777	24.3	3
0	5785	24.5	2
0	5793	24.7	1
0	5801	24.9	0
1	0	0	0
1	455	1.1	10
1	613	1.3	15
1	671	1.5	15
1	779	1.7	20
1	837	1.9	20
1	899	2.1	20
1	1057	2.3	25
1	1115	2.5	25
1	1223	2.7	30
1	1281	2.9	30
1	1343	3.1	30
1	1501	3.3	35
1	1559	3.5	35
1	1667	3.7	40
1	1725	3.9	40
1	1787	4.1	40
1	1945	4.3	45
1	2003	4.5	45
1	2111	4.7	50
1	2169	4.9	50
1	2231	5.1	50
1	2389	5.3	55
1	2447	5.5	55
1	2555	5.7	60
1	2613	5.9	60
1	2675	6.1	60
1	2833	6.3	65
1	2891	6.5	65
1	2999	6.7	70
1	3057	6.9	70
1	3119	7.1	70
1	3277	7.3	75
1	3335	7.5	75
1	3443	7.7	80
1	3501	7.9	80
1	3563	8.1	80
1	3721	8.3	85
1	3779	8.5	85
1	3887	8.7	90
1	3945	8.9	90
1	4007	9.1	90
1	4165	9.3	95
1	4223	9.5	95
1	4331	9.7	100
1	4389	9.9	100
1	4451	10.1	100
1	4609	10.3	105
1	4667	10.5	105
1	4775	10.7	110
1	4833	10.9	110
1	4895	11.1	110
1	5053	11.3	115
1	5111	11.5	115
1	5219	11.7	120
1	5277	11.9	120
1	5289	12.1	120
1	5297	12.3	120
1	5305	12.5	120
1	5313	12.7	120
1	5321	12.9	120
1	5329	13.1	120
1	5337	13.3	120
1	5345	13.5	120
1	5353	13.7	120
1	5361	13.9	120
1	5369	14.1	120
1	5377	14.3	120
1	5385	14.5	120
1	5393	14.7	120
1	5401	14.9	120
1	5409	15.1	120
1	5417	15.3	120
1	5425	15.5	120
1	5433	15.7	120
1	5441	15.9	120
1	5449	16.1	120
1	5457	16.3	120
1	5465	16.5	120
1	5473	16.7	120
1	5481	16.9	120
1	5489	17.1	120
1	5497	17.3	120
1	5505	17.5	120
1	5513	17.7	120
1	5521	17.9	120
1	5529	18.1	120
1	5537	18.3	120
1	5545	18.5	120
1	5553	18.7	120
1	5561	18.9	120
1	5569	19.1	120
1	5577	19.3	120
1	5585	19.5	120
1	5593	19.7	120
1	5601	19.9	120
1	5609	20.1	120
1	5617	20.3	120
1	5625	20.5	120
1	5633	20.7	120
1	5641	20.9	120
1	5649	21.1	120
1	5657	21.3	120
1	5665	21.5	120
1	5673	21.7	120
1	5681	21.9	120
1	5689	22.1	120
1	5697	22.3	120
1	5705	22.5	120
1	5713	22.7	120
1	5721	22.9	120
1	5729	23.1	120
1	5737	23.3	120
1	5745	23.5	120
1	5753	23.7	120
1	5761	23.9	120
1	5769	24.1	120
1	5777	24.3	120
1	5785	24.5	120
1	5793	24.7	120
1	5801	24.9	120
1	5809	25.1	120
2	0	0	0
2	106	0.1	1
2	107	0.1	2
2	108	0.1	3
2	109	0.1	4
2	110	0.1	5
2	111	0.1	6
2	112	0.1	7
2	113	0.1	8
2	114	0.1	9
2	115	0.1	10
2	306	0.6	11
2	307	0.6	12
2	308	0.6	13
2	309	0.6	14
2	310	0.6	15
2	311	0.6	16
2	312	0.6	17
2	313	0.6	18
2	314	0.6	19
2	315	0.6	20
2	456	1.1	19
2	514	1.1	20
2	515	1.1	21
2	516	1.1	22
2	517	1.1	23
2	518	1.1	24
2	519	1.1	25
2	520	1.1	26
2	521	1.1	27
2	522	1.1	28
2	523	1.1	29
2	614	1.3	28
2	672	1.5	27
2	734	1.6	28
2	735	1.6	29
2	736	1.6	30
2	737	1.6	31
2	738	1.6	32
2	739	1.6	33
2	740	1.6	34
2	741	1.6	35
2	742	1.6	36
2	743	1.6	37
2	780	1.7	36
2	838	1.9	35
2	900	2.1	34
2	958	2.1	35
2	959	2.1	36
2	960	2.1	37
2	961	2.1	38
2	962	2.1	39
2	963	2.1	40
2	964	2.1	41
2	965	2.1	42
2	966	2.1	43
2	967	2.1	44
2	1058	2.3	43
2	1116	2.5	42
2	1178	2.6	43
2	1179	2.6	44
2	1180	2.6	45
2	1181	2.6	46
2	1182	2.6	47
2	1183	2.6	48
2	1184	2.6	49
2	1185	2.6	50
2	1186	2.6	51
2	1187	2.6	52
2	1224	2.7	51
2	1282	2.9	50
2	1344	3.1	49
2	1402	3.1	50
2	1403	3.1	51
2	1404	3.1	52
2	1405	3.1	53
2	1406	3.1	54
2	1407	3.1	55
2	1408	3.1	56
2	1409	3.1	57
2	1410	3.1	58
2	1411	3.1	59
2	1502	3.3	58
2	1560	3.5	57
2	1622	3.6	58
2	1623	3.6	59
2	1624	3.6	60
2	1625	3.6	61
2	1626	3.6	62
2	1627	3.6	63
2	1628	3.6	64
2	1629	3.6	65
2	1630	3.6	66
2	1631	3.6	67
2	1668	3.7	66
2	1726	3.9	65
2	1788	4.1	64
2	1846	4.1	65
2	1847	4.1	66
2	1848	4.1	67
2	1849	4.1	68
2	1850	4.1	69
2	1851	4.1	70
2	1852	4.1	71
2	1853	4.1	72
2	1854	4.1	73
2	1855	4.1	74
2	1946	4.3	73
2	2004	4.5	72
2	2066	4.6	73
2	2067	4.6	74
2	2068	4.6	75
2	2069	4.6	76
2	2070	4.6	77
2	2071	4.6	78
2	2072	4.6	79
2	2073	4.6	80
2	2074	4.6	81
2	2075	4.6	82
2	2112	4.7	81
2	2170	4.9	80
2	2232	5.1	79
2	2290	5.1	80
2	2291	5.1	81
2	2292	5.1	82
2	2293	5.1	83
2	2294	5.1	84
2	2295	5.1	85
2	2296	5.1	86
2	2297	5.1	87
2	2298	5.1	88
2	2299	5.1	89
2	2390	5.3	88
2	2448	5.5	87
2	2510	5.6	88
2	2511	5.6	89
2	2512	5.6	90
2	2513	5.6	91
2	2514	5.6	92
2	2515	5.6	93
2	2516	5.6	94
2	2517	5.6	95
2	2518	5.6	96
2	2519	5.6	97
2	2556	5.7	96
2	2614	5.9	95
2	2676	6.1	94
2	2734	6.1	95
2	2735	6.1	96
2	2736	6.1	97
2	2737	6.1	98
2	2738	6.1	99
2	2739	6.1	100
2	2740	6.1	101
2	2741	6.1	102
2	2742	6.1	103
2	2743	6.1	104
2	2834	6.3	103
2	2892	6.5	102
2	2954	6.6	103
2	2955	6.6	104
2	2956	6.6	105
2	2957	6.6	106
2	2958	6.6	107
2	2959	6.6	108
2	2960	6.6	109
2	2961	6.6	110
2	2962	6.6	111
2	2963	6.6	112
2	3000	6.7	111
2	3058	6.9	110
2	3120	7.1	109
2	3178	7.1	110
2	3179	7.1	111
2	3180	7.1	112
2	3181	7.1	113
2	3182	7.1	114
2	3183	7.1	115
2	3184	7.1	116
2	3185	7.1	117
2	3186	7.1	118
2	3187	7.1	119
2	3278	7.3	118
2	3336	7.5	117
2	3398	7.6	118
2	3399	7.6	119
2	3400	7.6	120
2	3401	7.6	121
2	3402	7.6	122
2	3403	7.6	123
2	3404	7.6	124
2	3405	7.6	125
2	3406	7.6	126
2	3407	7.6	127
2	3444	7.7	126
2	3502	7.9	125
2	3564	8.1	124
2	3622	8.1	125
2	3623	8.1	126
2	3624	8.1	127
2	3625	8.1	128
2	3626	8.1	129
2	3627	8.1	130
2	3628	8.1	131
2	3629	8.1	132
2	3630	8.1	133
2	3631	8.1	134
2	3722	8.3	133
2	3780	8.5	132
2	3842	8.6	133
2	3843	8.6	134
2	3844	8.6	135
2	3845	8.6	136
2	3846	8.6	137
2	3847	8.6	138
2	3848	8.6	139
2	3849	8.6	140
2	3850	8.6	141
2	3851	8.6	142
2	3888	8.7	141
2	3946	8.9	140
2	4008	9.1	139
2	4066	9.1	140
2	4067	9.1	141
2	4068	9.1	142
2	4069	9.1	143
2	4070	9.1	144
2	4071	9.1	145
2	4072	9.1	146
2	4073	9.1	147
2	4074	9.1	148
2	4075	9.1	149
2	4166	9.3	148
2	4224	9.5	147
2	4286	9.6	148
2	4287	9.6	149
2	4288	9.6	150
2	4289	9.6	151
2	4290	9.6	152
2	4291	9.6	153
2	4292	9.6	154
2	4293	9.6	155
2	4294	9.6	156
2	4295	9.6	157
2	4332	9.7	156
2	4390	9.9	155
2	4452	10.1	154
2	4510	10.1	155
2	4511	10.1	156
2	4512	10.1	157
2	4513	10.1	158
2	4514	10.1	159
2	4515	10.1	160
2	4516	10.1	161
2	4517	10.1	162
2	4518	10.1	163
2	4519	10.1	164
2	4610	10.3	163
2	4668	10.5	162
2	4730	10.6	163
2	4731	10.6	164
2	4732	10.6	165
2	4733	10.6	166
2	4734	10.6	167
2	4735	10.6	168
2	4736	10.6	169
2	4737	10.6	170
2	4738	10.6	171
2	4739	10.6	172
2	4776	10.7	171
2	4834	10.9	170
2	4896	11.1	169
2	4954	11.1	170
2	4955	11.1	171
2	4956	11.1	172
2	4957	11.1	173
2	4958	11.1	174
2	4959	11.1	175
2	4960	11.1	176
2	4961	11.1	177
2	4962	11.1	178
2	4963	11.1	179
2	5054	11.3	178
2	5112	11.5	177
2	5174	11.6	178
2	5175	11.6	179
2	5176	11.6	180
2	5177	11.6	181
2	5178	11.6	182
2	5179	11.6	183
2	5180	11.6	184
2	5181	11.6	185
2	5182	11.6	186
2	5183	11.6	187
2	5220	11.7	186
2	5278	11.9	185
2	5290	12.1	184
2	5298	12.3	183
2	5306	12.5	182
2	5314	12.7	181
2	5322	12.9	180
2	5330	13.1	179
2	5338	13.3	178
2	5346	13.5	177
2	5354	13.7	176
2	5362	13.9	175
2	5370	14.1	174
2	5378	14.3	173
2	5386	14.5	172
2	5394	14.7	171
2	5402	14.9	170
2	5410	15.1	169
2	5418	15.3	168
2	5426	15.5	167
2	5434	15.7	166
2	5442	15.9	165
2	5450	16.1	164
2	5458	16.3	163
2	5466	16.5	162
2	5474	16.7	161
2	5482	16.9	160
2	5490	17.1	159
2	5498	17.3	158
2	5506	17.5	157
2	5514	17.7	156
2	5522	17.9	155
2	5530	18.1	154
2	5538	18.3	153
2	5546	18.5	152
2	5554	18.7	151
2	5562	18.9	150
2	5570	19.1	149
2	5578	19.3	148
2	5586	19.5	147
2	5594	19.7	146
2	5602	19.9	145
2	5610	20.1	144
2	5618	20.3	143
2	5626	20.5	142
2	5634	20.7	141
2	5642	20.9	140
2	5650	21.1	139
2	5658	21.3	138
2	5666	21.5	137
2	5674	21.7	136
2	5682	21.9	135
2	5690	22.1	134
2	5698	22.3	133
2	5706	22.5	132
2	5714	22.7	131
2	5722	22.9	130
2	5730	23.1	129
2	5738	23.3	128
2	5746	23.5	127
2	5754	23.7	126
2	5762	23.9	125
2	5770	24.1	124
2	5778	24.3	123
2	5786	24.5	122
2	5794	24.7	121
2	5802	24.9	120
2	5810	25.1	119
2	5816	25.3	118
2	5822	25.5	117
2	5828	25.7	116
2	5834	25.9	115
2	5840	26.1	114
2	5846	26.3	113
2	5852	26.5	112
2	5858	26.7	111
2	5864	26.9	110
2	5870	27.1	109
2	5876	27.3	108
2	5882	27.5	107
2	5888	27.7	106
2	5894	27.9	105
2	5900	28.1	104
2	5906	28.3	103
2	5912	28.5	102
2	5918	28.7	101
2	5924	28.9	100
2	5930	29.1	99
2	5936	29.3	98
2	5942	29.5	97
2	5948	29.7	96
2	5954	29.9	95
2	5960	30.1	94
2	5966	30.3	93
2	5972	30.5	92
2	5978	30.7	91
2	5984	30.9	90
2	5990	31.1	89
2	5996	31.3	88
2	6002	31.5	87
2	6008	31.7	86
2	6014	31.9	85
2	6020	32.1	84
2	6026	32.3	83
2	6032	32.5	82
2	6038	32.7	81
2	6044	32.9	80
2	6050	33.1	79
2	6056	33.3	78
2	6062	33.5	77
2	6068	33.7	76
2	6074	33.9	75
2	6080	34.1	74
2	6086	34.3	73
2	6092	34.5	72
2	6098	34.7	71
2	6104	34.9	70
2	6110	35.1	69
2	6116	35.3	68
2	6122	35.5	67
2	6128	35.7	66
2	6134	35.9	65
2	6140	36.1	64
2	6146	36.3	63
2	6152	36.5	62
2	6158	36.7	61
2	6164	36.9	60
2	6170	37.1	59
2	6176	37.3	58
2	6182	37.5	57
2	6188	37.7	56
2	6194	37.9	55
2	6200	38.1	54
2	6206	38.3	53
2	6212	38.5	52
2	6218	38.7	51
2	6224	38.9	50
2	6230	39.1	49
2	6236	39.3	48
2	6242	39.5	47
2	6248	39.7	46
2	6254	39.9	45
2	6260	40.1	44
2	6266	40.3	43
2	6272	40.5	42
2	6278	40.7	41
2	6284	40.9	40
2	6290	41.1	39
2	6296	41.3	38
2	6302	41.5	37
2	6308	41.7	36
2	6314	41.9	35
2	6320	42.1	34
2	6326	42.3	33
2	6332	42.5	32
2	6338	42.7	31
2	6344	42.9	30
2	6350	43.1	29
2	6356	43.3	28
2	6362	43.5	27
2	6368	43.7	26
2	6374	43.9	25
2	6380	44.1	24
2	6386	44.3	23
2	6392	44.5	22
2	6398	44.7	21
2	6404	44.9	20
2	6410	45.1	19
2	6416	45.3	18
2	6422	45.5	17
2	6428	45.7	16
2	6434	45.9	15
2	6440	46.1	14
2	6446	46.3	13
2	6452	46.5	12
2	6458	46.7	11
2	6464	46.9	10
2	6470	47.1	9
2	6476	47.3	8
2	6482	47.5	7
2	6488	47.7	6
2	6494	47.9	5
2	6500	48.1	4
2	6506	48.3	3
2	6512	48.5	2
2	6518	48.7	1
2	6524	48.9	0
3	0	0	0
3	456	1.1	20
3	614	1.3	30
3	672	1.5	30
3	780	1.7	40
3	838	1.9	40
3	900	2.1	40
3	1058	2.3	50
3	1116	2.5	50
3	1224	2.7	60
3	1282	2.9	60
3	1344	3.1	60
3	1502	3.3	70
3	1560	3.5	70
3	1668	3.7	80
3	1726	3.9	80
3	1788	4.1	80
3	1946	4.3	90
3	2004	4.5	90
3	2112	4.7	100
3	2170	4.9	100
3	2232	5.1	100
3	2390	5.3	110
3	2448	5.5	110
3	2556	5.7	120
3	2614	5.9	120
3	2676	6.1	120
3	2834	6.3	130
3	2892	6.5	130
3	3000	6.7	140
3	3058	6.9	140
3	3120	7.1	140
3	3278	7.3	150
3	3336	7.5	150
3	3444	7.7	160
3	3502	7.9	160
3	3564	8.1	160
3	3722	8.3	170
3	3780	8.5	170
3	3888	8.7	180
3	3946	8.9	180
3	4008	9.1	180
3	4166	9.3	190
3	4224	9.5	190
3	4332	9.7	200
3	4390	9.9	200
3	4452	10.1	200
3	4610	10.3	210
3	4668	10.5	210
3	4776	10.7	220
3	4834	10.9	220
3	4896	11.1	220
3	5054	11.3	230
3	5112	11.5	230
3	5220	11.7	240
3	5278	11.9	240
3	5290	12.1	240
3	5298	12.3	240
3	5306	12.5	240
3	5314	12.7	240
3	5322	12.9	240
3	5330	13.1	240
3	5338	13.3	240
3	5346	13.5	240
3	5354	13.7	240
3	5362	13.9	240
3	5370	14.1	240
3	5378	14.3	240
3	5386	14.5	240
3	5394	14.7	240
3	5402	14.9	240
3	5410	15.1	240
3	5418	15.3	240
3	5426	15.5	240
3	5434	15.7	240
3	5442	15.9	240
3	5450	16.1	240
3	5458	16.3	240
3	5466	16.5	240
3	5474	16.7	240
3	5482	16.9	240
3	5490	17.1	240
3	5498	17.3	240
3	5506	17.5	240
3	5514	17.7	240
3	5522	17.9	240
3	5530	18.1	240
3	5538	18.3	240
3	5546	18.5	240
3	5554	18.7	240
3	5562	18.9	240
3	5570	19.1	240
3	5578	19.3	240
3	5586	19.5	240
3	5594	19.7	240
3	5602	19.9	240
3	5610	20.1	240
3	5618	20.3	240
3	5626	20.5	240
3	5634	20.7	240
3	5642	20.9	240
3	5650	21.1	240
3	5658	21.3	240
3	5666	21.5	240
3	5674	21.7	240
3	5682	21.9	240
3	5690	22.1	240
3	5698	22.3	240
3	5706	22.5	240
3	5714	22.7	240
3	5722	22.9	240
3	5730	23.1	240
3	5738	23.3	240
3	5746	23.5	240
3	5754	23.7	240
3	5762	23.9	240
3	5770	24.1	240
3	5778	24.3	240
3	5786	24.5	240
3	5794	24.7	240
3	5802	24.9	240
3	5810	25.1	240
3	5816	25.3	240
3	5822	25.5	240
3	5828	25.7	240
3	5834	25.9	240
3	5840	26.1	240
3	5846	26.3	240
3	5852	26.5	240
3	5858	26.7	240
3	5864	26.9	240
3	5870	27.1	240
3	5876	27.3	240
3	5882	27.5	240
3	5888	27.7	240
3	5894	27.9	240
3	5900	28.1	240
3	5906	28.3	240
3	5912	28.5	240
3	5918	28.7	240
3	5924	28.9	240
3	5930	29.1	240
3	5936	29.3	240
3	5942	29.5	240
3	5948	29.7	240
3	5954	29.9	240
3	5960	30.1	240
3	5966	30.3	240
3	5972	30.5	240
3	5978	30.7	240
3	5984	30.9	240
3	5990	31.1	240
3	5996	31.3	240
3	6002	31.5	240
3	6008	31.7	240
3	6014	31.9	240
3	6020	32.1	240
3	6026	32.3	240
3	6032	32.5	240
3	6038	32.7	240
3	6044	32.9	240
3	6050	33.1	240
3	6056	33.3	240
3	6062	33.5	240
3	6068	33.7	240
3	6074	33.9	240
3	6080	34.1	240
3	6086	34.3	240
3	6092	34.5	240
3	6098	34.7	240
3	6104	34.9	240
3	6110	35.1	240
3	6116	35.3	240
3	6122	35.5	240
3	6128	35.7	240
3	6134	35.9	240
3	6140	36.1	240
3	6146	36.3	240
3	6152	36.5	240
3	6158	36.7	240
3	6164	36.9	240
3	6170	37.1	240
3	6176	37.3	240
3	6182	37.5	240
3	6188	37.7	240
3	6194	37.9	240
3	6200	38.1	240
3	6206	38.3	240
3	6212	38.5	240
3	6218	38.7	240
3	6224	38.9	240
3	6230	39.1	240
3	6236	39.3	240
3	6242	39.5	240
3	6248	39.7	240
3	6254	39.9	240
3	6260	40.1	240
3	6266	40.3	240
3	6272	40.5	240
3	6278	40.7	240
3	6284	40.9	240
3	6290	41.1	240
3	6296	41.3	240
3	6302	41.5	240
3	6308	41.7	240
3	6314	41.9	240
3	6320	42.1	240
3	6326	42.3	240
3	6332	42.5	240
3	6338	42.7	240
3	6344	42.9	240
3	6350	43.1	240
3	6356	43.3	240
3	6362	43.5	240
3	6368	43.7	240
3	6374	43.9	240
3	6380	44.1	240
3	6386	44.3	240
3	6392	44.5	240
3	6398	44.7	240
3	6404	44.9	240
3	6410	45.1	240
3	6416	45.3	240
3	6422	45.5	240
3	6428	45.7	240
3	6434	45.9	240
3	6440	46.1	240
3	6446	46.3	240
3	6452	46.5	240
3	6458	46.7	240
3	6464	46.9	240
3	6470	47.1	240
3	6476	47.3	240
3	6482	47.5	240
3	6488	47.7	240
3	6494	47.9	240
3	6500	48.1	240
3	6506	48.3	240
3	6512	48.5	240
3	6518	48.7	240
3	6524	48.9	240
3	6530	49.1	240
4	0	0	0
4	116	0.1	1
4	117	0.1	2
4	118	0.1	3
4	119	0.1	4
4	120	0.1	5
4	121	0.1	6
4	122	0.1	7
4	123	0.1	8
4	124	0.1	9
4	125	0.1	10
4	126	0.1	11
4	127	0.1	12
4	128	0.1	13
4	129	0.1	14
4	130	0.1	15
4	316	0.6	16
4	317	0.6	17
4	318	0.6	18
4	319	0.6	19
4	320	0.6	20
4	321	0.6	21
4	322	0.6	22
4	323	0.6	23
4	324	0.6	24
4	325	0.6	25
4	326	0.6	26
4	327	0.6	27
4	328	0.6	28
4	329	0.6	29
4	330	0.6	30
4	457	1.1	29
4	524	1.1	30
4	525	1.1	31
4	526	1.1	32
4	527	1.1	33
4	528	1.1	34
4	529	1.1	35
4	530	1.1	36
4	531	1.1	37
4	532	1.1	38
4	533	1.1	39
4	534	1.1	40
4	535	1.1	41
4	536	1.1	42
4	537	1.1	43
4	538	1.1	44
4	615	1.3	43
4	673	1.5	42
4	744	1.6	43
4	745	1.6	44
4	746	1.6	45
4	747	1.6	46
4	748	1.6	47
4	749	1.6	48
4	750	1.6	49
4	751	1.6	50
4	752	1.6	51
4	753	1.6	52
4	754	1.6	53
4	755	1.6	54
4	756	1.6	55
4	757	1.6	56
4	758	1.6	57
4	781	1.7	56
4	839	1.9	55
4	901	2.1	54
4	968	2.1	55
4	969	2.1	56
4	970	2.1	57
4	971	2.1	58
4	972	2.1	59
4	973	2.1	60
4	974	2.1	61
4	975	2.1	62
4	976	2.1	63
4	977	2.1	64
4	978	2.1	65
4	979	2.1	66
4	980	2.1	67
4	981	2.1	68
4	982	2.1	69
4	1059	2.3	68
4	1117	2.5	67
4	1188	2.6	68
4	1189	2.6	69
4	1190	2.6	70
4	1191	2.6	71
4	1192	2.6	72
4	1193	2.6	73
4	1194	2.6	74
4	1195	2.6	75
4	1196	2.6	76
4	1197	2.6	77
4	1198	2.6	78
4	1199	2.6	79
4	1200	2.6	80
4	1201	2.6	81
4	1202	2.6	82
4	1225	2.7	81
4	1283	2.9	80
4	1345	3.1	79
4	1412	3.1	80
4	1413	3.1	81
4	1414	3.1	82
4	1415	3.1	83
4	1416	3.1	84
4	1417	3.1	85
4	1418	3.1	86
4	1419	3.1	87
4	1420	3.1	88
4	1421	3.1	89
4	1422	3.1	90
4	1423	3.1	91
4	1424	3.1	92
4	1425	3.1	93
4	1426	3.1	94
4	1503	3.3	93
4	1561	3.5	92
4	1632	3.6	93
4	1633	3.6	94
4	1634	3.6	95
4	1635	3.6	96
4	1636	3.6	97
4	1637	3.6	98
4	1638	3.6	99
4	1639	3.6	100
4	1640	3.6	101
4	1641	3.6	102
4	1642	3.6	103
4	1643	3.6	104
4	1644	3.6	105
4	1645	3.6	106
4	1646	3.6	107
4	1669	3.7	106
4	1727	3.9	105
4	1789	4.1	104
4	1856	4.1	105
4	1857	4.1	106
4	1858	4.1	107
4	1859	4.1	108
4	1860	4.1	109
4	1861	4.1	110
4	1862	4.1	111
4	1863	4.1	112
4	1864	4.1	113
4	1865	4.1	114
4	1866	4.1	115
4	1867	4.1	116
4	1868	4.1	117
4	1869	4.1	118
4	1870	4.1	119
4	1947	4.3	118
4	2005	4.5	117
4	2076	4.6	118
4	2077	4.6	119
4	2078	4.6	120
4	2079	4.6	121
4	2080	4.6	122
4	2081	4.6	123
4	2082	4.6	124
4	2083	4.6	125
4	2084	4.6	126
4	2085	4.6	127
4	2086	4.6	128
4	2087	4.6	129
4	2088	4.6	130
4	2089	4.6	131
4	2090	4.6	132
4	2113	4.7	131
4	2171	4.9	130
4	2233	5.1	129
4	2300	5.1	130
4	2301	5.1	131
4	2302	5.1	132
4	2303	5.1	133
4	2304	5.1	134
4	2305	5.1	135
4	2306	5.1	136
4	2307	5.1	137
4	2308	5.1	138
4	2309	5.1	139
4	2310	5.1	140
4	2311	5.1	141
4	2312	5.1	142
4	2313	5.1	143
4	2314	5.1	144
4	2391	5.3	143
4	2449	5.5	142
4	2520	5.6	143
4	2521	5.6	144
4	2522	5.6	145
4	2523	5.6	146
4	2524	5.6	147
4	2525	5.6	148
4	2526	5.6	149
4	2527	5.6	150
4	2528	5.6	151
4	2529	5.6	152
4	2530	5.6	153
4	2531	5.6	154
4	2532	5.6	155
4	2533	5.6	156
4	2534	5.6	157
4	2557	5.7	156
4	2615	5.9	155
4	2677	6.1	154
4	2744	6.1	155
4	2745	6.1	156
4	2746	6.1	157
4	2747	6.1	158
4	2748	6.1	159
4	2749	6.1	160
4	2750	6.1	161
4	2751	6.1	162
4	2752	6.1	163
4	2753	6.1	164
4	2754	6.1	165
4	2755	6.1	166
4	2756	6.1	167
4	2757	6.1	168
4	2758	6.1	169
4	2835	6.3	168
4	2893	6.5	167
4	2964	6.6	168
4	2965	6.6	169
4	2966	6.6	170
4	2967	6.6	171
4	2968	6.6	172
4	2969	6.6	173
4	2970	6.6	174
4	2971	6.6	175
4	2972	6.6	176
4	2973	6.6	177
4	2974	6.6	178
4	2975	6.6	179
4	2976	6.6	180
4	2977	6.6	181
4	2978	6.6	182
4	3001	6.7	181
4	3059	6.9	180
4	3121	7.1	179
4	3188	7.1	180
4	3189	7.1	181
4	3190	7.1	182
4	3191	7.1	183
4	3192	7.1	184
4	3193	7.1	185
4	3194	7.1	186
4	3195	7.1	187
4	3196	7.1	188
4	3197	7.1	189
4	3198	7.1	190
4	3199	7.1	191
4	3200	7.1	192
4	3201	7.1	193
4	3202	7.1	194
4	3279	7.3	193
4	3337	7.5	192
4	3408	7.6	193
4	3409	7.6	194
4	3410	7.6	195
4	3411	7.6	196
4	3412	7.6	197
4	3413	7.6	198
4	3414	7.6	199
4	3415	7.6	200
4	3416	7.6	201
4	3417	7.6	202
4	3418	7.6	203
4	3419	7.6	204
4	3420	7.6	205
4	3421	7.6	206
4	3422	7.6	207
4	3445	7.7	206
4	3503	7.9	205
4	3565	8.1	204
4	3632	8.1	205
4	3633	8.1	206
4	3634	8.1	207
4	3635	8.1	208
4	3636	8.1	209
4	3637	8.1	210
4	3638	8.1	211
4	3639	8.1	212
4	3640	8.1	213
4	3641	8.1	214
4	3642	8.1	215
4	3643	8.1	216
4	3644	8.1	217
4	3645	8.1	218
4	3646	8.1	219
4	3723	8.3	218
4	3781	8.5	217
4	3852	8.6	218
4	3853	8.6	219
4	3854	8.6	220
4	3855	8.6	221
4	3856	8.6	222
4	3857	8.6	223
4	3858	8.6	224
4	3859	8.6	225
4	3860	8.6	226
4	3861	8.6	227
4	3862	8.6	228
4	3863	8.6	229
4	3864	8.6	230
4	3865	8.6	231
4	3866	8.6	232
4	3889	8.7	231
4	3947	8.9	230
4	4009	9.1	229
4	4076	9.1	230
4	4077	9.1	231
4	4078	9.1	232
4	4079	9.1	233
4	4080	9.1	234
4	4081	9.1	235
4	4082	9.1	236
4	4083	9.1	237
4	4084	9.1	238
4	4085	9.1	239
4	4086	9.1	240
4	4087	9.1	241
4	4088	9.1	242
4	4089	9.1	243
4	4090	9.1	244
4	4167	9.3	243
4	4225	9.5	242
4	4296	9.6	243
4	4297	9.6	244
4	4298	9.6	245
4	4299	9.6	246
4	4300	9.6	247
4	4301	9.6	248
4	4302	9.6	249
4	4303	9.6	250
4	4304	9.6	251
4	4305	9.6	252
4	4306	9.6	253
4	4307	9.6	254
4	4308	9.6	255
4	4309	9.6	256
4	4310	9.6	257
4	4333	9.7	256
4	4391	9.9	255
4	4453	10.1	254
4	4520	10.1	255
4	4521	10.1	256
4	4522	10.1	257
4	4523	10.1	258
4	4524	10.1	259
4	4525	10.1	260
4	4526	10.1	261
4	4527	10.1	262
4	4528	10.1	263
4	4529	10.1	264
4	4530	10.1	265
4	4531	10.1	266
4	4532	10.1	267
4	4533	10.1	268
4	4534	10.1	269
4	4611	10.3	268
4	4669	10.5	267
4	4740	10.6	268
4	4741	10.6	269
4	4742	10.6	270
4	4743	10.6	271
4	4744	10.6	272
4	4745	10.6	273
4	4746	10.6	274
4	4747	10.6	275
4	4748	10.6	276
4	4749	10.6	277
4	4750	10.6	278
4	4751	10.6	279
4	4752	10.6	280
4	4753	10.6	281
4	4754	10.6	282
4	4777	10.7	281
4	4835	10.9	280
4	4897	11.1	279
4	4964	11.1	280
4	4965	11.1	281
4	4966	11.1	282
4	4967	11.1	283
4	4968	11.1	284
4	4969	11.1	285
4	4970	11.1	286
4	4971	11.1	287
4	4972	11.1	288
4	4973	11.1	289
4	4974	11.1	290
4	4975	11.1	291
4	4976	11.1	292
4	4977	11.1	293
4	4978	11.1	294
4	5055	11.3	293
4	5113	11.5	292
4	5184	11.6	293
4	5185	11.6	294
4	5186	11.6	295
4	5187	11.6	296
4	5188	11.6	297
4	5189	11.6	298
4	5190	11.6	299
4	5191	11.6	300
4	5192	11.6	301
4	5193	11.6	302
4	5194	11.6	303
4	5195	11.6	304
4	5196	11.6	305
4	5197	11.6	306
4	5198	11.6	307
4	5221	11.7	306
4	5279	11.9	305
4	5291	12.1	304
4	5299	12.3	303
4	5307	12.5	302
4	5315	12.7	301
4	5323	12.9	300
4	5331	13.1	299
4	5339	13.3	298
4	5347	13.5	297
4	5355	13.7	296
4	5363	13.9	295
4	5371	14.1	294
4	5379	14.3	293
4	5387	14.5	292
4	5395	14.7	291
4	5403	14.9	290
4	5411	15.1	289
4	5419	15.3	288
4	5427	15.5	287
4	5435	15.7	286
4	5443	15.9	285
4	5451	16.1	284
4	5459	16.3	283
4	5467	16.5	282
4	5475	16.7	281
4	5483	16.9	280
4	5491	17.1	279
4	5499	17.3	278
4	5507	17.5	277
4	5515	17.7	276
4	5523	17.9	275
4	5531	18.1	274
4	5539	18.3	273
4	5547	18.5	272
4	5555	18.7	271
4	5563	18.9	270
4	5571	19.1	269
4	5579	19.3	268
4	5587	19.5	267
4	5595	19.7	266
4	5603	19.9	265
4	5611	20.1	264
4	5619	20.3	263
4	5627	20.5	262
4	5635	20.7	261
4	5643	20.9	260
4	5651	21.1	259
4	5659	21.3	258
4	5667	21.5	257
4	5675	21.7	256
4	5683	21.9	255
4	5691	22.1	254
4	5699	22.3	253
4	5707	22.5	252
4	5715	22.7	251
4	5723	22.9	250
4	5731	23.1	249
4	5739	23.3	248
4	5747	23.5	247
4	5755	23.7	246
4	5763	23.9	245
4	5771	24.1	244
4	5779	24.3	243
4	5787	24.5	242
4	5795	24.7	241
4	5803	24.9	240
4	5811	25.1	239
4	5817	25.3	238
4	5823	25.5	237
4	5829	25.7	236
4	5835	25.9	235
4	5841	26.1	234
4	5847	26.3	233
4	5853	26.5	232
4	5859	26.7	231
4	5865	26.9	230
4	5871	27.1	229
4	5877	27.3	228
4	5883	27.5	227
4	5889	27.7	226
4	5895	27.9	225
4	5901	28.1	224
4	5907	28.3	223
4	5913	28.5	222
4	5919	28.7	221
4	5925	28.9	220
4	5931	29.1	219
4	5937	29.3	218
4	5943	29.5	217
4	5949	29.7	216
4	5955	29.9	215
4	5961	30.1	214
4	5967	30.3	213
4	5973	30.5	212
4	5979	30.7	211
4	5985	30.9	210
4	5991	31.1	209
4	5997	31.3	208
4	6003	31.5	207
4	6009	31.7	206
4	6015	31.9	205
4	6021	32.1	204
4	6027	32.3	203
4	6033	32.5	202
4	6039	32.7	201
4	6045	32.9	200
4	6051	33.1	199
4	6057	33.3	198
4	6063	33.5	197
4	6069	33.7	196
4	6075	33.9	195
4	6081	34.1	194
4	6087	34.3	193
4	6093	34.5	192
4	6099	34.7	191
4	6105	34.9	190
4	6111	35.1	189
4	6117	35.3	188
4	6123	35.5	187
4	6129	35.7	186
4	6135	35.9	185
4	6141	36.1	184
4	6147	36.3	183
4	6153	36.5	182
4	6159	36.7	181
4	6165	36.9	180
4	6171	37.1	179
4	6177	37.3	178
4	6183	37.5	177
4	6189	37.7	176
4	6195	37.9	175
4	6201	38.1	174
4	6207	38.3	173
4	6213	38.5	172
4	6219	38.7	171
4	6225	38.9	170
4	6231	39.1	169
4	6237	39.3	168
4	6243	39.5	167
4	6249	39.7	166
4	6255	39.9	165
4	6261	40.1	164
4	6267	40.3	163
4	6273	40.5	162
4	6279	40.7	161
4	6285	40.9	160
4	6291	41.1	159
4	6297	41.3	158
4	6303	41.5	157
4	6309	41.7	156
4	6315	41.9	155
4	6321	42.1	154
4	6327	42.3	153
4	6333	42.5	152
4	6339	42.7	151
4	6345	42.9	150
4	6351	43.1	149
4	6357	43.3	148
4	6363	43.5	147
4	6369	43.7	146
4	6375	43.9	145
4	6381	44.1	144
4	6387	44.3	143
4	6393	44.5	142
4	6399	44.7	141
4	6405	44.9	140
4	6411	45.1	139
4	6417	45.3	138
4	6423	45.5	137
4	6429	45.7	136
4	6435	45.9	135
4	6441	46.1	134
4	6447	46.3	133
4	6453	46.5	132
4	6459	46.7	131
4	6465	46.9	130
4	6471	47.1	129
4	6477	47.3	128
4	6483	47.5	127
4	6489	47.7	126
4	6495	47.9	125
4	6501	48.1	124
4	6507	48.3	123
4	6513	48.5	122
4	6519	48.7	121
4	6525	48.9	120
4	6531	49.1	119
4	6535	49.3	118
4	6539	49.5	117
4	6543	49.7	116
4	6547	49.9	115
4	6551	50.1	114
4	6555	50.3	113
4	6559	50.5	112
4	6563	50.7	111
4	6567	50.9	110
4	6571	51.1	109
4	6575	51.3	108
4	6579	51.5	107
4	6583	51.7	106
4	6587	51.9	105
4	6591	52.1	104
4	6595	52.3	103
4	6599	52.5	102
4	6603	52.7	101
4	6607	52.9	100
4	6611	53.1	99
4	6615	53.3	98
4	6619	53.5	97
4	6623	53.7	96
4	6627	53.9	95
4	6631	54.1	94
4	6635	54.3	93
4	6639	54.5	92
4	6643	54.7	91
4	6647	54.9	90
4	6651	55.1	89
4	6655	55.3	88
4	6659	55.5	87
4	6663	55.7	86
4	6667	55.9	85
4	6671	56.1	84
4	6675	56.3	83
4	6679	56.5	82
4	6683	56.7	81
4	6687	56.9	80
4	6691	57.1	79
4	6695	57.3	78
4	6699	57.5	77
4	6703	57.7	76
4	6707	57.9	75
4	6711	58.1	74
4	6715	58.3	73
4	6719	58.5	72
4	6723	58.7	71
4	6727	58.9	70
4	6731	59.1	69
4	6735	59.3	68
4	6739	59.5	67
4	6743	59.7	66
4	6747	59.9	65
4	6751	60.1	64
4	6755	60.3	63
4	6759	60.5	62
4	6763	60.7	61
4	6767	60.9	60
4	6771	61.1	59
4	6775	61.3	58
4	6779	61.5	57
4	6783	61.7	56
4	6787	61.9	55
4	6791	62.1	54
4	6795	62.3	53
4	6799	62.5	52
4	6803	62.7	51
4	6807	62.9	50
4	6811	63.1	49
4	6815	63.3	48
4	6819	63.5	47
4	6823	63.7	46
4	6827	63.9	45
4	6831	64.1	44
4	6835	64.3	43
4	6839	64.5	42
4	6843	64.7	41
4	6847	64.9	40
4	6851	65.1	39
4	6855	65.3	38
4	6859	65.5	37
4	6863	65.7	36
4	6867	65.9	35
4	6871	66.1	34
4	6875	66.3	33
4	6879	66.5	32
4	6883	66.7	31
4	6887	66.9	30
4	6891	67.1	29
4	6895	67.3	28
4	6899	67.5	27
4	6903	67.7	26
4	6907	67.9	25
4	6911	68.1	24
4	6915	68.3	23
4	6919	68.5	22
4	6923	68.7	21
4	6927	68.9	20
4	6931	69.1	19
4	6935	69.3	18
4	6939	69.5	17
4	6943	69.7	16
4	6947	69.9	15
4	6951	70.1	14
4	6955	70.3	13
4	6959	70.5	12
4	6963	70.7	11
4	6967	70.9	10
4	6971	71.1	9
4	6975	71.3	8
4	6979	71.5	7
4	6983	71.7	6
4	6987	71.9	5
4	6991	72.1	4
4	6995	72.3	3
4	6999	72.5	2
4	7003	72.7	1
4	7007	72.9	0
5	0	0	0
5	457	1.1	30
5	615	1.3	45
5	673	1.5	45
5	781	1.7	60
5	839	1.9	60
5	901	2.1	60
5	1059	2.3	75
5	1117	2.5	75
5	1225	2.7	90
5	1283	2.9	90
5	1345	3.1	90