version 2
run HeterogeneousMicrogridNetwork-0-20180406-09:47:39-45372
attr configname HeterogeneousMicrogridNetwork
attr datetime 20180406-09:47:39
attr experiment HeterogeneousMicrogridNetwork
attr inifile omnetpp.ini
attr iterationvars ""
attr iterationvarsf ""
attr measurement ""
attr network HeterogeneousMicrogridNetwork
attr processid 45372
attr repetition 0
attr replication #0
attr resultdir results
attr runnumber 0
attr seedset 0

vector 0 HeterogeneousMicrogridNetwork.pico[0].queue queueLength:vector ETV
attr interpolationmode sample-hold
attr title "queue length, vector"
vector 1 HeterogeneousMicrogridNetwork.pico[1].queue queueLength:vector ETV
attr interpolationmode sample-hold
attr title "queue length, vector"
vector 2 HeterogeneousMicrogridNetwork.pico[2].queue queueLength:vector ETV
attr interpolationmode sample-hold
attr title "queue length, vector"
vector 3 HeterogeneousMicrogridNetwork.pico[3].queue queueLength:vector ETV
attr interpolationmode sample-hold
attr title "queue length, vector"
0	0	0	0
0	25	0.1	1
0	26	0.1	2
0	27	0.1	3
0	28	0.1	4
0	29	0.1	5
0	30	0.1	6
1	0	0	0
1	31	0.1	1
1	32	0.1	2
1	33	0.1	3
2	0	0	0
2	34	0.1	1
2	35	0.1	2
3	0	0	0
3	36	0.1	1
vector 4 HeterogeneousMicrogridNetwork.pico[0].queue queueingTime:vector ETV
attr interpolationmode none
attr title "queueing time at dequeue, vector"
attr unit s
vector 5 HeterogeneousMicrogridNetwork.pico[1].queue queueingTime:vector ETV
attr interpolationmode none
attr title "queueing time at dequeue, vector"
attr unit s
vector 6 HeterogeneousMicrogridNetwork.pico[2].queue queueingTime:vector ETV
attr interpolationmode none
attr title "queueing time at dequeue, vector"
attr unit s
vector 7 HeterogeneousMicrogridNetwork.pico[3].queue queueingTime:vector ETV
attr interpolationmode none
attr title "queueing time at dequeue, vector"
attr unit s
vector 8 HeterogeneousMicrogridNetwork.macro[0] timeSensitiveQueueMsgTime:vector ETV
attr interpolationmode sample-hold
attr title "timeSensitiveQueueMsgTime, vector"
vector 9 HeterogeneousMicrogridNetwork.macro[0] timeMediumQueueMsgTime:vector ETV
attr interpolationmode sample-hold
attr title "timeMediumQueueMsgTime, vector"
vector 10 HeterogeneousMicrogridNetwork.macro[0] timeTolerantQueueMsgTime:vector ETV
attr interpolationmode sample-hold
attr title "timeTolerantQueueMsgTime, vector"
0	73	0.6	7
0	74	0.6	8
0	75	0.6	9
0	76	0.6	10
0	77	0.6	11
0	78	0.6	12
0	113	1.1	11
0	129	1.1	12
0	130	1.1	13
0	131	1.1	14
0	132	1.1	15
0	133	1.1	16
0	134	1.1	17
0	157	1.3	16
0	177	1.5	15
0	197	1.6	16
0	198	1.6	17
0	199	1.6	18
0	200	1.6	19
0	201	1.6	20
0	202	1.6	21
0	209	1.7	20
0	229	1.9	19
0	252	2.1	18
0	267	2.1	19
0	268	2.1	20
0	269	2.1	21
0	270	2.1	22
0	271	2.1	23
0	272	2.1	24
0	294	2.3	23
0	312	2.5	22
0	330	2.6	23
0	331	2.6	24
0	332	2.6	25
0	333	2.6	26
0	334	2.6	27
0	335	2.6	28
0	342	2.7	27
0	360	2.9	26
0	383	3.1	25
0	398	3.1	26
0	399	3.1	27
0	400	3.1	28
0	401	3.1	29
0	402	3.1	30
0	403	3.1	31
0	427	3.3	30
0	447	3.5	29
0	466	3.6	30
0	467	3.6	31
0	468	3.6	32
0	469	3.6	33
0	470	3.6	34
0	471	3.6	35
0	479	3.7	34
0	499	3.9	33
0	521	4.1	32
0	536	4.1	33
0	537	4.1	34
0	538	4.1	35
0	539	4.1	36
0	540	4.1	37
0	541	4.1	38
0	563	4.3	37
0	581	4.5	36
0	599	4.6	37
0	600	4.6	38
0	601	4.6	39
0	602	4.6	40
0	603	4.6	41
0	604	4.6	42
0	611	4.7	41
0	629	4.9	40
0	652	5.1	39
0	667	5.1	40
0	668	5.1	41
0	669	5.1	42
0	670	5.1	43
0	671	5.1	44
0	672	5.1	45
0	695	5.3	44
0	713	5.5	43
0	730	5.6	44
0	731	5.6	45
0	732	5.6	46
0	733	5.6	47
0	734	5.6	48
0	735	5.6	49
0	743	5.7	48
0	761	5.9	47
0	782	6.1	46
0	796	6.1	47
0	797	6.1	48
0	798	6.1	49
0	799	6.1	50
0	800	6.1	51
0	801	6.1	52
0	824	6.3	51
0	842	6.5	50
0	859	6.6	51
0	860	6.6	52
0	861	6.6	53
0	862	6.6	54
0	863	6.6	55
0	864	6.6	56
0	872	6.7	55
0	890	6.9	54
0	913	7.1	53
0	927	7.1	54
0	928	7.1	55
0	929	7.1	56
0	930	7.1	57
0	931	7.1	58
0	932	7.1	59
0	957	7.3	58
0	977	7.5	57
0	995	7.6	58
0	996	7.6	59
0	997	7.6	60
0	998	7.6	61
0	999	7.6	62
0	1000	7.6	63
0	1009	7.7	62
0	1029	7.9	61
0	1051	8.1	60
0	1065	8.1	61
0	1066	8.1	62
0	1067	8.1	63
0	1068	8.1	64
0	1069	8.1	65
0	1070	8.1	66
0	1093	8.3	65
0	1111	8.5	64
0	1128	8.6	65
0	1129	8.6	66
0	1130	8.6	67
0	1131	8.6	68
0	1132	8.6	69
0	1133	8.6	70
0	1141	8.7	69
0	1159	8.9	68
0	1182	9.1	67
0	1196	9.1	68
0	1197	9.1	69
0	1198	9.1	70
0	1199	9.1	71
0	1200	9.1	72
0	1201	9.1	73
0	1226	9.3	72
0	1246	9.5	71
0	1264	9.6	72
0	1265	9.6	73
0	1266	9.6	74
0	1267	9.6	75
0	1268	9.6	76
0	1269	9.6	77
0	1278	9.7	76
0	1298	9.9	75
0	1320	10.1	74
0	1334	10.1	75
0	1335	10.1	76
0	1336	10.1	77
0	1337	10.1	78
0	1338	10.1	79
0	1339	10.1	80
0	1360	10.3	79
0	1376	10.5	78
0	1392	10.6	79
0	1393	10.6	80
0	1394	10.6	81
0	1395	10.6	82
0	1396	10.6	83
0	1397	10.6	84
0	1404	10.7	83
0	1420	10.9	82
0	1442	11.1	81
0	1456	11.1	82
0	1457	11.1	83
0	1458	11.1	84
0	1459	11.1	85
0	1460	11.1	86
0	1461	11.1	87
0	1486	11.3	86
0	1506	11.5	85
0	1524	11.6	86
0	1525	11.6	87
0	1526	11.6	88
0	1527	11.6	89
0	1528	11.6	90
0	1529	11.6	91
0	1538	11.7	90
0	1558	11.9	89
0	1568	12.1	88
0	1574	12.3	87
0	1580	12.5	86
0	1586	12.7	85
0	1590	12.9	84
0	1594	13.1	83
0	1598	13.3	82
0	1602	13.5	81
0	1606	13.7	80
0	1610	13.9	79
0	1614	14.1	78
0	1618	14.3	77
0	1622	14.5	76
0	1626	14.7	75
0	1630	14.9	74
0	1634	15.1	73
0	1638	15.3	72
0	1642	15.5	71
0	1645	15.7	70
0	1647	15.9	69
0	1649	16.1	68
0	1651	16.3	67
0	1653	16.5	66
0	1655	16.7	65
0	1657	16.9	64
0	1659	17.1	63
0	1661	17.3	62
0	1663	17.5	61
0	1665	17.7	60
0	1667	17.9	59
0	1669	18.1	58
0	1671	18.3	57
0	1673	18.5	56
0	1675	18.7	55
0	1677	18.9	54
0	1679	19.1	53
0	1681	19.3	52
0	1683	19.5	51
0	1685	19.7	50
0	1687	19.9	49
0	1689	20.1	48
0	1691	20.3	47
0	1693	20.5	46
0	1695	20.7	45
0	1697	20.9	44
0	1699	21.1	43
0	1701	21.3	42
0	1703	21.5	41
0	1705	21.7	40
0	1707	21.9	39
0	1709	22.1	38
0	1711	22.3	37
0	1713	22.5	36
0	1715	22.7	35
0	1717	22.9	34
0	1719	23.1	33
0	1721	23.3	32
0	1723	23.5	31
0	1725	23.7	30
0	1727	23.9	29
0	1729	24.1	28
0	1731	24.3	27
0	1733	24.5	26
0	1735	24.7	25
0	1737	24.9	24
0	1739	25.1	23
0	1741	25.3	22
0	1743	25.5	21
0	1745	25.7	20
0	1747	25.9	19
0	1749	26.1	18
0	1751	26.3	17
0	1753	26.5	16
0	1755	26.7	15
0	1757	26.9	14
0	1759	27.1	13
0	1761	27.3	12
0	1763	27.5	11
0	1765	27.7	10
0	1767	27.9	9
0	1769	28.1	8
0	1771	28.3	7
0	1773	28.5	6
0	1775	28.7	5
0	1777	28.9	4
0	1779	29.1	3
0	1781	29.3	2
0	1783	29.5	1
0	1785	29.7	0
1	79	0.6	4
1	80	0.6	5
1	81	0.6	6
1	114	1.1	5
1	135	1.1	6
1	136	1.1	7
1	137	1.1	8
1	158	1.3	7
1	178	1.5	6
1	203	1.6	7
1	204	1.6	8
1	205	1.6	9
1	210	1.7	8
1	230	1.9	7
1	253	2.1	6
1	273	2.1	7
1	274	2.1	8
1	275	2.1	9
1	295	2.3	8
1	313	2.5	7
1	336	2.6	8
1	337	2.6	9
1	338	2.6	10
1	343	2.7	9
1	361	2.9	8
1	384	3.1	7
1	404	3.1	8
1	405	3.1	9
1	406	3.1	10
1	428	3.3	9
1	448	3.5	8
1	472	3.6	9
1	473	3.6	10
1	474	3.6	11
1	480	3.7	10
1	500	3.9	9
1	522	4.1	8
1	542	4.1	9
1	543	4.1	10
1	544	4.1	11
1	564	4.3	10
1	582	4.5	9
1	605	4.6	10
1	606	4.6	11
1	607	4.6	12
1	612	4.7	11
1	630	4.9	10
1	653	5.1	9
1	673	5.1	10
1	674	5.1	11
1	675	5.1	12
1	696	5.3	11
1	714	5.5	10
1	736	5.6	11
1	737	5.6	12
1	738	5.6	13
1	744	5.7	12
1	762	5.9	11
1	783	6.1	10
1	802	6.1	11
1	803	6.1	12
1	804	6.1	13
1	825	6.3	12
1	843	6.5	11
1	865	6.6	12
1	866	6.6	13
1	867	6.6	14
1	873	6.7	13
1	891	6.9	12
1	914	7.1	11
1	933	7.1	12
1	934	7.1	13
1	935	7.1	14
1	958	7.3	13
1	978	7.5	12
1	1001	7.6	13
1	1002	7.6	14
1	1003	7.6	15
1	1010	7.7	14
1	1030	7.9	13
1	1052	8.1	12
1	1071	8.1	13
1	1072	8.1	14
1	1073	8.1	15
1	1094	8.3	14
1	1112	8.5	13
1	1134	8.6	14
1	1135	8.6	15
1	1136	8.6	16
1	1142	8.7	15
1	1160	8.9	14
1	1183	9.1	13
1	1202	9.1	14
1	1203	9.1	15
1	1204	9.1	16
1	1227	9.3	15
1	1247	9.5	14
1	1270	9.6	15
1	1271	9.6	16
1	1272	9.6	17
1	1279	9.7	16
1	1299	9.9	15
1	1321	10.1	14
1	1340	10.1	15
1	1341	10.1	16
1	1342	10.1	17
1	1361	10.3	16
1	1377	10.5	15
1	1398	10.6	16
1	1399	10.6	17
1	1400	10.6	18
1	1405	10.7	17
1	1421	10.9	16
1	1443	11.1	15
1	1462	11.1	16
1	1463	11.1	17
1	1464	11.1	18
1	1487	11.3	17
1	1507	11.5	16
1	1530	11.6	17
1	1531	11.6	18
1	1532	11.6	19
1	1539	11.7	18
1	1559	11.9	17
1	1569	12.1	16
1	1575	12.3	15
1	1581	12.5	14
1	1587	12.7	13
1	1591	12.9	12
1	1595	13.1	11
1	1599	13.3	10
1	1603	13.5	9
1	1607	13.7	8
1	1611	13.9	7
1	1615	14.1	6
1	1619	14.3	5
1	1623	14.5	4
1	1627	14.7	3
1	1631	14.9	2
1	1635	15.1	1
1	1639	15.3	0
2	82	0.6	3
2	83	0.6	4
2	115	1.1	3
2	138	1.1	4
2	139	1.1	5
2	159	1.3	4
2	179	1.5	3
2	206	1.6	4
2	207	1.6	5
2	211	1.7	4
2	231	1.9	3
2	254	2.1	2
2	276	2.1	3
2	277	2.1	4
2	296	2.3	3
2	314	2.5	2
2	339	2.6	3
2	340	2.6	4
2	344	2.7	3
2	362	2.9	2
2	385	3.1	1
2	407	3.1	2
2	408	3.1	3
2	429	3.3	2
2	449	3.5	1
2	475	3.6	2
2	476	3.6	3
2	481	3.7	2
2	501	3.9	1
2	523	4.1	0
2	545	4.1	1
2	546	4.1	2
2	565	4.3	1
2	583	4.5	0
2	608	4.6	1
2	609	4.6	2
2	613	4.7	1
2	631	4.9	0
2	676	5.1	1
2	677	5.1	2
2	739	5.6	3
2	740	5.6	4
2	781	6.1	3
2	805	6.1	4
2	806	6.1	5
2	823	6.3	4
2	841	6.5	3
2	868	6.6	4
2	869	6.6	5
2	871	6.7	4
2	889	6.9	3
2	912	7.1	2
2	936	7.1	3
2	937	7.1	4
2	956	7.3	3
2	976	7.5	2
2	1004	7.6	3
2	1005	7.6	4
2	1008	7.7	3
2	1028	7.9	2
2	1050	8.1	1
2	1074	8.1	2
2	1075	8.1	3
2	1092	8.3	2
2	1110	8.5	1
2	1137	8.6	2
2	1138	8.6	3
2	1140	8.7	2
2	1158	8.9	1
2	1181	9.1	0
2	1205	9.1	1
2	1206	9.1	2
2	1225	9.3	1
2	1245	9.5	0
2	1273	9.6	1
2	1274	9.6	2
2	1277	9.7	1
2	1297	9.9	0
2	1343	10.1	1
2	1344	10.1	2
2	1401	10.6	3
2	1402	10.6	4
2	1440	11.1	3
2	1465	11.1	4
2	1466	11.1	5
2	1484	11.3	4
2	1504	11.5	3
2	1533	11.6	4
2	1534	11.6	5
2	1536	11.7	4
2	1556	11.9	3
2	1567	12.1	2
2	1573	12.3	1
2	1579	12.5	0
3	84	0.6	2
3	116	1.1	1
3	140	1.1	2
3	160	1.3	1
3	180	1.5	0
3	208	1.6	1
3	212	1.7	0
3	278	2.1	1
3	341	2.6	2
3	382	3.1	1
3	409	3.1	2
3	426	3.3	1
3	446	3.5	0
3	477	3.6	1
3	478	3.7	0
3	547	4.1	1
3	610	4.6	2
3	651	5.1	1
3	678	5.1	2
3	694	5.3	1
3	712	5.5	0
3	741	5.6	1
3	742	5.7	0
3	807	6.1	1
3	870	6.6	2
3	911	7.1	1
3	938	7.1	2
3	955	7.3	1
3	975	7.5	0
3	1006	7.6	1
3	1007	7.7	0
3	1076	8.1	1
3	1139	8.6	2
3	1180	9.1	1
3	1207	9.1	2
3	1224	9.3	1
3	1244	9.5	0
3	1275	9.6	1
3	1276	9.7	0
3	1345	10.1	1
3	1403	10.6	2
3	1441	11.1	1
3	1467	11.1	2
3	1485	11.3	1
3	1505	11.5	0
3	1535	11.6	1
3	1537	11.7	0
4	113	1.1	1.1
4	157	1.3	1.3
4	177	1.5	1.5
4	209	1.7	1.7
4	229	1.9	1.9
4	252	2.1	2.1
4	294	2.3	2.3
4	312	2.5	2.5
4	342	2.7	2.7
4	360	2.9	2.9
4	383	3.1	3.1
4	427	3.3	3.3
4	447	3.5	3.5
4	479	3.7	3.7
4	499	3.9	3.9
4	521	4.1	4.1
4	563	4.3	4.3
4	581	4.5	4.5
4	611	4.7	4.7
4	629	4.9	4.9
4	652	5.1	5.1
4	695	5.3	5.3
4	713	5.5	5.5
4	743	5.7	5.7
4	761	5.9	5.9
4	782	6.1	6.1
4	824	6.3	6.3
4	842	6.5	6.5
4	872	6.7	6.7
4	890	6.9	6.9
4	913	7.1	7.1
4	957	7.3	7.3
4	977	7.5	7.5
4	1009	7.7	7.7
4	1029	7.9	7.9
4	1051	8.1	8.1
4	1093	8.3	8.3
4	1111	8.5	8.5
4	1141	8.7	8.7
4	1159	8.9	8.9
4	1182	9.1	9.1
4	1226	9.3	9.3
4	1246	9.5	9.5
4	1278	9.7	9.7
4	1298	9.9	9.9
4	1320	10.1	10.1
4	1360	10.3	10.3
4	1376	10.5	10.5
4	1404	10.7	10.7
4	1420	10.9	10.9
4	1442	11.1	11.1
4	1486	11.3	11.3
4	1506	11.5	11.5
4	1538	11.7	11.7
4	1558	11.9	11.9
4	1568	12.1	12.1
4	1574	12.3	12.3
4	1580	12.5	12.5
4	1586	12.7	12.7
4	1590	12.9	12.9
4	1594	13.1	13.1
4	1598	13.3	13.3
4	1602	13.5	13.5
4	1606	13.7	13.7
4	1610	13.9	13.9
4	1614	14.1	14.1
4	1618	14.3	14.3
4	1622	14.5	14.5
4	1626	14.7	14.7
4	1630	14.9	14.9
4	1634	15.1	15.1
4	1638	15.3	15.3
4	1642	15.5	15.5
4	1645	15.7	15.7
4	1647	15.9	15.9
4	1649	16.1	16.1
4	1651	16.3	16.3
4	1653	16.5	16.5
4	1655	16.7	16.7
4	1657	16.9	16.9
4	1659	17.1	17.1
4	1661	17.3	17.3
4	1663	17.5	17.5
4	1665	17.7	17.7
4	1667	17.9	17.9
4	1669	18.1	18.1
4	1671	18.3	18.3
4	1673	18.5	18.5
4	1675	18.7	18.7
4	1677	18.9	18.9
4	1679	19.1	19.1
4	1681	19.3	19.3
4	1683	19.5	19.5
4	1685	19.7	19.7
4	1687	19.9	19.9
4	1689	20.1	20.1
4	1691	20.3	20.3
4	1693	20.5	20.5
4	1695	20.7	20.7
4	1697	20.9	20.9
4	1699	21.1	21.1
4	1701	21.3	21.3
4	1703	21.5	21.5
4	1705	21.7	21.7
4	1707	21.9	21.9
4	1709	22.1	22.1
4	1711	22.3	22.3
4	1713	22.5	22.5
4	1715	22.7	22.7
4	1717	22.9	22.9
4	1719	23.1	23.1
4	1721	23.3	23.3
4	1723	23.5	23.5
4	1725	23.7	23.7
4	1727	23.9	23.9
4	1729	24.1	24.1
4	1731	24.3	24.3
4	1733	24.5	24.5
4	1735	24.7	24.7
4	1737	24.9	24.9
4	1739	25.1	25.1
4	1741	25.3	25.3
4	1743	25.5	25.5
4	1745	25.7	25.7
4	1747	25.9	25.9
4	1749	26.1	26.1
4	1751	26.3	26.3
4	1753	26.5	26.5
4	1755	26.7	26.7
4	1757	26.9	26.9
4	1759	27.1	27.1
4	1761	27.3	27.3
4	1763	27.5	27.5
4	1765	27.7	27.7
4	1767	27.9	27.9
4	1769	28.1	28.1
4	1771	28.3	28.3
4	1773	28.5	28.5
4	1775	28.7	28.7
4	1777	28.9	28.9
4	1779	29.1	29.1
4	1781	29.3	29.3
4	1783	29.5	29.5
4	1785	29.7	29.7
5	114	1.1	1.1
5	158	1.3	1.3
5	178	1.5	1.5
5	210	1.7	1.7
5	230	1.9	1.9
5	253	2.1	2.1
5	295	2.3	2.3
5	313	2.5	2.5
5	343	2.7	2.7
5	361	2.9	2.9
5	384	3.1	3.1
5	428	3.3	3.3
5	448	3.5	3.5
5	480	3.7	3.7
5	500	3.9	3.9
5	522	4.1	4.1
5	564	4.3	4.3
5	582	4.5	4.5
5	612	4.7	4.7
5	630	4.9	4.9
5	653	5.1	5.1
5	696	5.3	5.3
5	714	5.5	5.5
5	744	5.7	5.7
5	762	5.9	5.9
5	783	6.1	6.1
5	825	6.3	6.3
5	843	6.5	6.5
5	873	6.7	6.7
5	891	6.9	6.9
5	914	7.1	7.1
5	958	7.3	7.3
5	978	7.5	7.5
5	1010	7.7	7.7
5	1030	7.9	7.9
5	1052	8.1	8.1
5	1094	8.3	8.3
5	1112	8.5	8.5
5	1142	8.7	8.7
5	1160	8.9	8.9
5	1183	9.1	9.1
5	1227	9.3	9.3
5	1247	9.5	9.5
5	1279	9.7	9.7
5	1299	9.9	9.9
5	1321	10.1	10.1
5	1361	10.3	10.3
5	1377	10.5	10.5
5	1405	10.7	10.7
5	1421	10.9	10.9
5	1443	11.1	11.1
5	1487	11.3	11.3
5	1507	11.5	11.5
5	1539	11.7	11.7
5	1559	11.9	11.9
5	1569	12.1	12.1
5	1575	12.3	12.3
5	1581	12.5	12.5
5	1587	12.7	12.7
5	1591	12.9	12.9
5	1595	13.1	13.1
5	1599	13.3	13.3
5	1603	13.5	13.5
5	1607	13.7	13.7
5	1611	13.9	13.9
5	1615	14.1	14.1
5	1619	14.3	14.3
5	1623	14.5	14.5
5	1627	14.7	14.7
5	1631	14.9	14.9
5	1635	15.1	15.1
5	1639	15.3	15.3
6	115	1.1	1.1
6	159	1.3	1.3
6	179	1.5	1.5
6	211	1.7	1.7
6	231	1.9	1.9
6	254	2.1	2.1
6	296	2.3	2.3
6	314	2.5	2.5
6	344	2.7	2.7
6	362	2.9	2.9
6	385	3.1	3.1
6	429	3.3	3.3
6	449	3.5	3.5
6	481	3.7	3.7
6	501	3.9	3.9
6	523	4.1	4.1
6	565	4.3	4.3
6	583	4.5	4.5
6	613	4.7	4.7
6	631	4.9	4.9
6	781	6.1	6.1
6	823	6.3	6.3
6	841	6.5	6.5
6	871	6.7	6.7
6	889	6.9	6.9
6	912	7.1	7.1
6	956	7.3	7.3
6	976	7.5	7.5
6	1008	7.7	7.7
6	1028	7.9	7.9
6	1050	8.1	8.1
6	1092	8.3	8.3
6	1110	8.5	8.5
6	1140	8.7	8.7
6	1158	8.9	8.9
6	1181	9.1	9.1
6	1225	9.3	9.3
6	1245	9.5	9.5
6	1277	9.7	9.7
6	1297	9.9	9.9
6	1440	11.1	11.1
6	1484	11.3	11.3
6	1504	11.5	11.5
6	1536	11.7	11.7
6	1556	11.9	11.9
6	1567	12.1	12.1
6	1573	12.3	12.3
6	1579	12.5	12.5
7	116	1.1	1.1
7	160	1.3	1.3
7	180	1.5	1.5
7	212	1.7	1.7
7	382	3.1	3.1
7	426	3.3	3.3
7	446	3.5	3.5
7	478	3.7	3.7
7	651	5.1	5.1
7	694	5.3	5.3
7	712	5.5	5.5
7	742	5.7	5.7
7	911	7.1	7.1
7	955	7.3	7.3
7	975	7.5	7.5
7	1007	7.7	7.7
7	1180	9.1	9.1
7	1224	9.3	9.3
7	1244	9.5	9.5
7	1276	9.7	9.7
7	1441	11.1	11.1
7	1485	11.3	11.3
7	1505	11.5	11.5
7	1537	11.7	11.7
8	141	1.2	1
8	142	1.2	1
8	161	1.4	1
8	162	1.4	1
8	163	1.4	1
8	193	1.6	1
8	194	1.6	1
8	225	1.8	1
8	226	1.8	1
8	245	2	1
8	279	2.2	1
8	297	2.4	1
8	298	2.4	1
8	327	2.6	1
8	357	2.8	1
8	358	2.8	1
8	375	3	1
8	431	3.4	2
8	432	3.4	2
8	496	3.8	2
8	567	4.4	2
8	626	4.8	2
8	627	4.8	2
8	698	5.4	2
8	699	5.4	2
8	758	5.8	2
8	808	6.2	3
8	827	6.4	3
8	857	6.6	3
8	887	6.8	3
8	905	7	3
8	941	7.2	3
8	961	7.4	3
8	1025	7.8	3
8	1095	8.4	3
8	1096	8.4	4
8	1126	8.6	4
8	1156	8.8	4
8	1230	9.4	4
8	1294	9.8	4
8	1313	10	4
8	1362	10.4	4
8	1390	10.6	4
8	1418	10.8	5
8	1434	11	5
8	1468	11.2	5
8	1490	11.4	5
8	1554	11.8	5
9	143	1.2	1
9	144	1.2	1
9	164	1.4	1
9	195	1.6	1
9	227	1.8	1
9	299	2.4	1
9	359	2.8	1
9	411	3.2	1
9	433	3.4	2
9	463	3.6	2
9	495	3.8	2
9	497	3.8	2
9	514	4	2
9	548	4.2	2
9	566	4.4	2
9	568	4.4	2
9	596	4.6	3
9	628	4.8	3
9	644	5	3
9	680	5.2	3
9	728	5.6	3
9	775	6	3
9	809	6.2	3
9	826	6.4	3
9	856	6.6	3
9	886	6.8	4
9	904	7	4
9	960	7.4	4
9	993	7.6	4
9	1024	7.8	4
9	1044	8	4
9	1078	8.2	4
9	1155	8.8	4
9	1174	9	4
9	1210	9.2	5
9	1229	9.4	5
9	1262	9.6	5
9	1293	9.8	5
9	1488	11.4	5
9	1520	11.6	5
9	1522	11.6	5
9	1552	11.8	6
9	1561	12	6
9	1571	12.2	6
9	1577	12.4	6
9	1583	12.6	6
10	196	1.6	1
10	228	1.8	1
10	246	2	1
10	247	2	1
10	280	2.2	1
10	281	2.2	1
10	328	2.6	2
10	329	2.6	2
10	376	3	2
10	377	3	2
10	410	3.2	2
10	412	3.2	2
10	413	3.2	2
10	430	3.4	2
10	462	3.6	2
10	464	3.6	2
10	465	3.6	2
10	494	3.8	2
10	515	4	2
10	516	4	2
10	549	4.2	2
10	550	4.2	3
10	597	4.6	3
10	598	4.6	3
10	645	5	3
10	646	5	3
10	679	5.2	3
10	681	5.2	3
10	697	5.4	3
10	727	5.6	3
10	729	5.6	3
10	757	5.8	3
10	759	5.8	3
10	776	6	3
10	810	6.2	3
10	828	6.4	3
10	858	6.6	4
10	888	6.8	4
10	906	7	4
10	939	7.2	4
10	940	7.2	4
10	942	7.2	4
10	959	7.4	4
10	962	7.4	4
10	991	7.6	4
10	992	7.6	4
10	994	7.6	4
10	1023	7.8	4
10	1026	7.8	4
10	1043	8	4
10	1045	8	4
10	1077	8.2	5
10	1079	8.2	5
10	1097	8.4	5
10	1125	8.6	5
10	1127	8.6	5
10	1157	8.8	5
10	1173	9	5
10	1175	9	5
10	1208	9.2	5
10	1209	9.2	5
10	1211	9.2	5
10	1228	9.4	5
10	1231	9.4	5
10	1260	9.6	5
10	1261	9.6	5
10	1263	9.6	5
10	1292	9.8	6
10	1295	9.8	6
10	1312	10	6
10	1314	10	6
10	1346	10.2	6
10	1347	10.2	6
10	1363	10.4	6
10	1391	10.6	6
10	1419	10.8	6
10	1435	11	6
10	1469	11.2	6
10	1470	11.2	6
10	1471	11.2	6
10	1489	11.4	6
10	1491	11.4	6
10	1521	11.6	6
10	1523	11.6	6
10	1553	11.8	6
10	1555	11.8	7
10	1560	12	7
10	1562	12	7
10	1570	12.2	7
10	1572	12.2	7
10	1576	12.4	7
10	1578	12.4	7
10	1582	12.6	7
10	1584	12.6	7
10	1588	12.8	7
10	1589	12.8	7
10	1592	13	7
10	1593	13	7
10	1596	13.2	7
10	1597	13.2	7
10	1600	13.4	7
10	1601	13.4	7
10	1604	13.6	7
10	1605	13.6	8
10	1608	13.8	8
10	1609	13.8	8
10	1612	14	8
10	1613	14	8
10	1616	14.2	8
10	1617	14.2	8
10	1620	14.4	8
10	1621	14.4	8
10	1624	14.6	8
10	1625	14.6	8
10	1628	14.8	8
10	1629	14.8	8
10	1632	15	8
10	1633	15	8
10	1636	15.2	8
10	1637	15.2	8
10	1640	15.4	8
10	1641	15.4	8
10	1644	15.6	9
10	1646	15.8	9
10	1648	16	9
10	1650	16.2	9
10	1652	16.4	9
10	1654	16.6	9
10	1656	16.8	9
10	1658	17	9
10	1660	17.2	9
10	1662	17.4	9
10	1664	17.6	9
10	1666	17.8	9
10	1668	18	9
10	1670	18.2	9
10	1672	18.4	9
10	1674	18.6	9
10	1676	18.8	10
10	1678	19	10
10	1680	19.2	10
10	1682	19.4	10
10	1684	19.6	10
10	1686	19.8	10
10	1688	20	10
10	1690	20.2	10
10	1692	20.4	10
10	1694	20.6	10
10	1696	20.8	10
10	1698	21	10
10	1700	21.2	10
10	1702	21.4	10
10	1704	21.6	10
10	1706	21.8	11
10	1708	22	11
10	1710	22.2	11
10	1712	22.4	11
10	1714	22.6	11
10	1716	22.8	11
10	1718	23	11
10	1720	23.2	11
10	1722	23.4	11
10	1724	23.6	11
10	1726	23.8	11
10	1728	24	11
10	1730	24.2	11
10	1732	24.4	11
10	1734	24.6	12
10	1736	24.8	12
10	1738	25	12
10	1740	25.2	12
10	1742	25.4	12
10	1744	25.6	12
10	1746	25.8	12
10	1748	26	12
10	1750	26.2	12
10	1752	26.4	12
10	1754	26.6	12
10	1756	26.8	12
10	1758	27	12
10	1760	27.2	13
10	1762	27.4	13
10	1764	27.6	13
10	1766	27.8	13
10	1768	28	13
10	1770	28.2	13
10	1772	28.4	13
10	1774	28.6	13
10	1776	28.8	13
10	1778	29	13
10	1780	29.2	13
10	1782	29.4	13
10	1784	29.6	14
10	1786	29.8	14

