version 2
run MicrogridNetwork-0-20180309-13:18:49-2266
attr configname MicrogridNetwork
attr datetime 20180309-13:18:49
attr experiment MicrogridNetwork
attr inifile omnetpp.ini
attr iterationvars ""
attr iterationvarsf ""
attr measurement ""
attr network MicrogridNetwork
attr processid 2266
attr repetition 0
attr replication #0
attr resultdir results
attr runnumber 0
attr seedset 0

vector 0 MicrogridNetwork.pico[0].queue queueLength:vector ETV
attr interpolationmode sample-hold
attr title "queue length, vector"
vector 1 MicrogridNetwork.pico[1].queue queueLength:vector ETV
attr interpolationmode sample-hold
attr title "queue length, vector"
vector 2 MicrogridNetwork.pico[2].queue queueLength:vector ETV
attr interpolationmode sample-hold
attr title "queue length, vector"
vector 3 MicrogridNetwork.pico[3].queue queueLength:vector ETV
attr interpolationmode sample-hold
attr title "queue length, vector"
vector 4 MicrogridNetwork.pico[0].queue queueingTime:vector ETV
attr interpolationmode none
attr title "queueing time at dequeue, vector"
attr unit s
vector 5 MicrogridNetwork.pico[1].queue queueingTime:vector ETV
attr interpolationmode none
attr title "queueing time at dequeue, vector"
attr unit s
vector 6 MicrogridNetwork.pico[2].queue queueingTime:vector ETV
attr interpolationmode none
attr title "queueing time at dequeue, vector"
attr unit s
vector 7 MicrogridNetwork.pico[3].queue queueingTime:vector ETV
attr interpolationmode none
attr title "queueing time at dequeue, vector"
attr unit s
0	0	0	0
0	25	0.1	1
0	26	0.1	2
0	27	0.1	3
0	73	0.6	4
0	74	0.6	5
0	75	0.6	6
0	97	1.1	5
0	113	1.1	6
0	114	1.1	7
0	115	1.1	8
0	129	1.3	7
0	149	1.5	6
0	169	1.6	7
0	170	1.6	8
0	171	1.6	9
0	181	1.7	8
0	189	1.9	7
0	209	2.1	6
0	225	2.1	7
0	226	2.1	8
0	227	2.1	9
0	241	2.3	8
0	261	2.5	7
0	281	2.6	8
0	282	2.6	9
0	283	2.6	10
0	293	2.7	9
0	301	2.9	8
0	325	3.1	7
0	341	3.1	8
0	342	3.1	9
0	343	3.1	10
0	369	3.3	9
0	389	3.5	8
0	409	3.6	9
0	410	3.6	10
0	411	3.6	11
0	421	3.7	10
0	429	3.9	9
0	449	4.1	8
0	465	4.1	9
0	466	4.1	10
0	467	4.1	11
0	481	4.3	10
0	501	4.5	9
0	521	4.6	10
0	522	4.6	11
0	523	4.6	12
0	533	4.7	11
0	541	4.9	10
0	561	5.1	9
0	577	5.1	10
0	578	5.1	11
0	579	5.1	12
0	593	5.3	11
0	613	5.5	10
0	633	5.6	11
0	634	5.6	12
0	635	5.6	13
0	645	5.7	12
0	653	5.9	11
0	677	6.1	10
0	693	6.1	11
0	694	6.1	12
0	695	6.1	13
0	721	6.3	12
0	741	6.5	11
0	761	6.6	12
0	762	6.6	13
0	763	6.6	14
0	773	6.7	13
0	781	6.9	12
0	801	7.1	11
0	817	7.1	12
0	818	7.1	13
0	819	7.1	14
0	833	7.3	13
0	853	7.5	12
0	873	7.6	13
0	874	7.6	14
0	875	7.6	15
0	885	7.7	14
0	893	7.9	13
0	913	8.1	12
0	929	8.1	13
0	930	8.1	14
0	931	8.1	15
0	945	8.3	14
0	965	8.5	13
0	985	8.6	14
0	986	8.6	15
0	987	8.6	16
0	997	8.7	15
0	1005	8.9	14
0	1029	9.1	13
0	1045	9.1	14
0	1046	9.1	15
0	1047	9.1	16
0	1073	9.3	15
0	1093	9.5	14
0	1113	9.6	15
0	1114	9.6	16
0	1115	9.6	17
0	1125	9.7	16
0	1133	9.9	15
0	1153	10.1	14
0	1169	10.1	15
0	1170	10.1	16
0	1171	10.1	17
0	1185	10.3	16
0	1205	10.5	15
0	1225	10.6	16
0	1226	10.6	17
0	1227	10.6	18
0	1237	10.7	17
0	1245	10.9	16
0	1265	11.1	15
0	1281	11.1	16
0	1282	11.1	17
0	1283	11.1	18
0	1297	11.3	17
0	1317	11.5	16
0	1337	11.6	17
0	1338	11.6	18
0	1339	11.6	19
0	1349	11.7	18
0	1357	11.9	17
0	1369	12.1	16
0	1377	12.3	15
0	1385	12.5	14
0	1393	12.7	13
0	1401	12.9	12
0	1409	13.1	11
0	1417	13.3	10
0	1425	13.5	9
0	1433	13.7	8
0	1441	13.9	7
0	1449	14.1	6
0	1457	14.3	5
0	1465	14.5	4
0	1473	14.7	3
0	1481	14.9	2
0	1489	15.1	1
0	1497	15.3	0
1	0	0	0
1	28	0.1	1
1	29	0.1	2
1	30	0.1	3
1	76	0.6	4
1	77	0.6	5
1	78	0.6	6
1	98	1.1	5
1	116	1.1	6
1	117	1.1	7
1	118	1.1	8
1	130	1.3	7
1	150	1.5	6
1	172	1.6	7
1	173	1.6	8
1	174	1.6	9
1	182	1.7	8
1	190	1.9	7
1	210	2.1	6
1	228	2.1	7
1	229	2.1	8
1	230	2.1	9
1	242	2.3	8
1	262	2.5	7
1	284	2.6	8
1	285	2.6	9
1	286	2.6	10
1	294	2.7	9
1	302	2.9	8
1	326	3.1	7
1	344	3.1	8
1	345	3.1	9
1	346	3.1	10
1	370	3.3	9
1	390	3.5	8
1	412	3.6	9
1	413	3.6	10
1	414	3.6	11
1	422	3.7	10
1	430	3.9	9
1	450	4.1	8
1	468	4.1	9
1	469	4.1	10
1	470	4.1	11
1	482	4.3	10
1	502	4.5	9
1	524	4.6	10
1	525	4.6	11
1	526	4.6	12
1	534	4.7	11
1	542	4.9	10
1	562	5.1	9
1	580	5.1	10
1	581	5.1	11
1	582	5.1	12
1	594	5.3	11
1	614	5.5	10
1	636	5.6	11
1	637	5.6	12
1	638	5.6	13
1	646	5.7	12
1	654	5.9	11
1	678	6.1	10
1	696	6.1	11
1	697	6.1	12
1	698	6.1	13
1	722	6.3	12
1	742	6.5	11
1	764	6.6	12
1	765	6.6	13
1	766	6.6	14
1	774	6.7	13
1	782	6.9	12
1	802	7.1	11
1	820	7.1	12
1	821	7.1	13
1	822	7.1	14
1	834	7.3	13
1	854	7.5	12
1	876	7.6	13
1	877	7.6	14
1	878	7.6	15
1	886	7.7	14
1	894	7.9	13
1	914	8.1	12
1	932	8.1	13
1	933	8.1	14
1	934	8.1	15
1	946	8.3	14
1	966	8.5	13
1	988	8.6	14
1	989	8.6	15
1	990	8.6	16
1	998	8.7	15
1	1006	8.9	14
1	1030	9.1	13
1	1048	9.1	14
1	1049	9.1	15
1	1050	9.1	16
1	1074	9.3	15
1	1094	9.5	14
1	1116	9.6	15
1	1117	9.6	16
1	1118	9.6	17
1	1126	9.7	16
1	1134	9.9	15
1	1154	10.1	14
1	1172	10.1	15
1	1173	10.1	16
1	1174	10.1	17
1	1186	10.3	16
1	1206	10.5	15
1	1228	10.6	16
1	1229	10.6	17
1	1230	10.6	18
1	1238	10.7	17
1	1246	10.9	16
1	1266	11.1	15
1	1284	11.1	16
1	1285	11.1	17
1	1286	11.1	18
1	1298	11.3	17
1	1318	11.5	16
1	1340	11.6	17
1	1341	11.6	18
1	1342	11.6	19
1	1350	11.7	18
1	1358	11.9	17
1	1370	12.1	16
1	1378	12.3	15
1	1386	12.5	14
1	1394	12.7	13
1	1402	12.9	12
1	1410	13.1	11
1	1418	13.3	10
1	1426	13.5	9
1	1434	13.7	8
1	1442	13.9	7
1	1450	14.1	6
1	1458	14.3	5
1	1466	14.5	4
1	1474	14.7	3
1	1482	14.9	2
1	1490	15.1	1
1	1498	15.3	0
2	0	0	0
2	31	0.1	1
2	32	0.1	2
2	33	0.1	3
2	79	0.6	4
2	80	0.6	5
2	81	0.6	6
2	99	1.1	5
2	119	1.1	6
2	120	1.1	7
2	121	1.1	8
2	131	1.3	7
2	151	1.5	6
2	175	1.6	7
2	176	1.6	8
2	177	1.6	9
2	183	1.7	8
2	191	1.9	7
2	211	2.1	6
2	231	2.1	7
2	232	2.1	8
2	233	2.1	9
2	243	2.3	8
2	263	2.5	7
2	287	2.6	8
2	288	2.6	9
2	289	2.6	10
2	295	2.7	9
2	303	2.9	8
2	327	3.1	7
2	347	3.1	8
2	348	3.1	9
2	349	3.1	10
2	371	3.3	9
2	391	3.5	8
2	415	3.6	9
2	416	3.6	10
2	417	3.6	11
2	423	3.7	10
2	431	3.9	9
2	451	4.1	8
2	471	4.1	9
2	472	4.1	10
2	473	4.1	11
2	483	4.3	10
2	503	4.5	9
2	527	4.6	10
2	528	4.6	11
2	529	4.6	12
2	535	4.7	11
2	543	4.9	10
2	563	5.1	9
2	583	5.1	10
2	584	5.1	11
2	585	5.1	12
2	595	5.3	11
2	615	5.5	10
2	639	5.6	11
2	640	5.6	12
2	641	5.6	13
2	647	5.7	12
2	655	5.9	11
2	679	6.1	10
2	699	6.1	11
2	700	6.1	12
2	701	6.1	13
2	723	6.3	12
2	743	6.5	11
2	767	6.6	12
2	768	6.6	13
2	769	6.6	14
2	775	6.7	13
2	783	6.9	12
2	803	7.1	11
2	823	7.1	12
2	824	7.1	13
2	825	7.1	14
2	835	7.3	13
2	855	7.5	12
2	879	7.6	13
2	880	7.6	14
2	881	7.6	15
2	887	7.7	14
2	895	7.9	13
2	915	8.1	12
2	935	8.1	13
2	936	8.1	14
2	937	8.1	15
2	947	8.3	14
2	967	8.5	13
2	991	8.6	14
2	992	8.6	15
2	993	8.6	16
2	999	8.7	15
2	1007	8.9	14
2	1031	9.1	13
2	1051	9.1	14
2	1052	9.1	15
2	1053	9.1	16
2	1075	9.3	15
2	1095	9.5	14
2	1119	9.6	15
2	1120	9.6	16
2	1121	9.6	17
2	1127	9.7	16
2	1135	9.9	15
2	1155	10.1	14
2	1175	10.1	15
2	1176	10.1	16
2	1177	10.1	17
2	1187	10.3	16
2	1207	10.5	15
2	1231	10.6	16
2	1232	10.6	17
2	1233	10.6	18
2	1239	10.7	17
2	1247	10.9	16
2	1267	11.1	15
2	1287	11.1	16
2	1288	11.1	17
2	1289	11.1	18
2	1299	11.3	17
2	1319	11.5	16
2	1343	11.6	17
2	1344	11.6	18
2	1345	11.6	19
2	1351	11.7	18
2	1359	11.9	17
2	1371	12.1	16
2	1379	12.3	15
2	1387	12.5	14
2	1395	12.7	13
2	1403	12.9	12
2	1411	13.1	11
2	1419	13.3	10
2	1427	13.5	9
2	1435	13.7	8
2	1443	13.9	7
2	1451	14.1	6
2	1459	14.3	5
2	1467	14.5	4
2	1475	14.7	3
2	1483	14.9	2
2	1491	15.1	1
2	1499	15.3	0
3	0	0	0
3	34	0.1	1
3	35	0.1	2
3	36	0.1	3
3	82	0.6	4
3	83	0.6	5
3	84	0.6	6
3	100	1.1	5
3	122	1.1	6
3	123	1.1	7
3	124	1.1	8
3	132	1.3	7
3	152	1.5	6
3	178	1.6	7
3	179	1.6	8
3	180	1.6	9
3	184	1.7	8
3	192	1.9	7
3	212	2.1	6
3	234	2.1	7
3	235	2.1	8
3	236	2.1	9
3	244	2.3	8
3	264	2.5	7
3	290	2.6	8
3	291	2.6	9
3	292	2.6	10
3	296	2.7	9
3	304	2.9	8
3	328	3.1	7
3	350	3.1	8
3	351	3.1	9
3	352	3.1	10
3	372	3.3	9
3	392	3.5	8
3	418	3.6	9
3	419	3.6	10
3	420	3.6	11
3	424	3.7	10
3	432	3.9	9
3	452	4.1	8
3	474	4.1	9
3	475	4.1	10
3	476	4.1	11
3	484	4.3	10
3	504	4.5	9
3	530	4.6	10
3	531	4.6	11
3	532	4.6	12
3	536	4.7	11
3	544	4.9	10
3	564	5.1	9
3	586	5.1	10
3	587	5.1	11
3	588	5.1	12
3	596	5.3	11
3	616	5.5	10
3	642	5.6	11
3	643	5.6	12
3	644	5.6	13
3	648	5.7	12
3	656	5.9	11
3	680	6.1	10
3	702	6.1	11
3	703	6.1	12
3	704	6.1	13
3	724	6.3	12
3	744	6.5	11
3	770	6.6	12
3	771	6.6	13
3	772	6.6	14
3	776	6.7	13
3	784	6.9	12
3	804	7.1	11
3	826	7.1	12
3	827	7.1	13
3	828	7.1	14
3	836	7.3	13
3	856	7.5	12
3	882	7.6	13
3	883	7.6	14
3	884	7.6	15
3	888	7.7	14
3	896	7.9	13
3	916	8.1	12
3	938	8.1	13
3	939	8.1	14
3	940	8.1	15
3	948	8.3	14
3	968	8.5	13
3	994	8.6	14
3	995	8.6	15
3	996	8.6	16
3	1000	8.7	15
3	1008	8.9	14
3	1032	9.1	13
3	1054	9.1	14
3	1055	9.1	15
3	1056	9.1	16
3	1076	9.3	15
3	1096	9.5	14
3	1122	9.6	15
3	1123	9.6	16
3	1124	9.6	17
3	1128	9.7	16
3	1136	9.9	15
3	1156	10.1	14
3	1178	10.1	15
3	1179	10.1	16
3	1180	10.1	17
3	1188	10.3	16
3	1208	10.5	15
3	1234	10.6	16
3	1235	10.6	17
3	1236	10.6	18
3	1240	10.7	17
3	1248	10.9	16
3	1268	11.1	15
3	1290	11.1	16
3	1291	11.1	17
3	1292	11.1	18
3	1300	11.3	17
3	1320	11.5	16
3	1346	11.6	17
3	1347	11.6	18
3	1348	11.6	19
3	1352	11.7	18
3	1360	11.9	17
3	1372	12.1	16
3	1380	12.3	15
3	1388	12.5	14
3	1396	12.7	13
3	1404	12.9	12
3	1412	13.1	11
3	1420	13.3	10
3	1428	13.5	9
3	1436	13.7	8
3	1444	13.9	7
3	1452	14.1	6
3	1460	14.3	5
3	1468	14.5	4
3	1476	14.7	3
3	1484	14.9	2
3	1492	15.1	1
3	1500	15.3	0
4	97	1.1	1.1
4	129	1.3	1.3
4	149	1.5	1.5
4	181	1.7	1.7
4	189	1.9	1.9
4	209	2.1	2.1
4	241	2.3	2.3
4	261	2.5	2.5
4	293	2.7	2.7
4	301	2.9	2.9
4	325	3.1	3.1
4	369	3.3	3.3
4	389	3.5	3.5
4	421	3.7	3.7
4	429	3.9	3.9
4	449	4.1	4.1
4	481	4.3	4.3
4	501	4.5	4.5
4	533	4.7	4.7
4	541	4.9	4.9
4	561	5.1	5.1
4	593	5.3	5.3
4	613	5.5	5.5
4	645	5.7	5.7
4	653	5.9	5.9
4	677	6.1	6.1
4	721	6.3	6.3
4	741	6.5	6.5
4	773	6.7	6.7
4	781	6.9	6.9
4	801	7.1	7.1
4	833	7.3	7.3
4	853	7.5	7.5
4	885	7.7	7.7
4	893	7.9	7.9
4	913	8.1	8.1
4	945	8.3	8.3
4	965	8.5	8.5
4	997	8.7	8.7
4	1005	8.9	8.9
4	1029	9.1	9.1
4	1073	9.3	9.3
4	1093	9.5	9.5
4	1125	9.7	9.7
4	1133	9.9	9.9
4	1153	10.1	10.1
4	1185	10.3	10.3
4	1205	10.5	10.5
4	1237	10.7	10.7
4	1245	10.9	10.9
4	1265	11.1	11.1
4	1297	11.3	11.3
4	1317	11.5	11.5
4	1349	11.7	11.7
4	1357	11.9	11.9
4	1369	12.1	12.1
4	1377	12.3	12.3
4	1385	12.5	12.5
4	1393	12.7	12.7
4	1401	12.9	12.9
4	1409	13.1	13.1
4	1417	13.3	13.3
4	1425	13.5	13.5
4	1433	13.7	13.7
4	1441	13.9	13.9
4	1449	14.1	14.1
4	1457	14.3	14.3
4	1465	14.5	14.5
4	1473	14.7	14.7
4	1481	14.9	14.9
4	1489	15.1	15.1
4	1497	15.3	15.3
5	98	1.1	1.1
5	130	1.3	1.3
5	150	1.5	1.5
5	182	1.7	1.7
5	190	1.9	1.9
5	210	2.1	2.1
5	242	2.3	2.3
5	262	2.5	2.5
5	294	2.7	2.7
5	302	2.9	2.9
5	326	3.1	3.1
5	370	3.3	3.3
5	390	3.5	3.5
5	422	3.7	3.7
5	430	3.9	3.9
5	450	4.1	4.1
5	482	4.3	4.3
5	502	4.5	4.5
5	534	4.7	4.7
5	542	4.9	4.9
5	562	5.1	5.1
5	594	5.3	5.3
5	614	5.5	5.5
5	646	5.7	5.7
5	654	5.9	5.9
5	678	6.1	6.1
5	722	6.3	6.3
5	742	6.5	6.5
5	774	6.7	6.7
5	782	6.9	6.9
5	802	7.1	7.1
5	834	7.3	7.3
5	854	7.5	7.5
5	886	7.7	7.7
5	894	7.9	7.9
5	914	8.1	8.1
5	946	8.3	8.3
5	966	8.5	8.5
5	998	8.7	8.7
5	1006	8.9	8.9
5	1030	9.1	9.1
5	1074	9.3	9.3
5	1094	9.5	9.5
5	1126	9.7	9.7
5	1134	9.9	9.9
5	1154	10.1	10.1
5	1186	10.3	10.3
5	1206	10.5	10.5
5	1238	10.7	10.7
5	1246	10.9	10.9
5	1266	11.1	11.1
5	1298	11.3	11.3
5	1318	11.5	11.5
5	1350	11.7	11.7
5	1358	11.9	11.9
5	1370	12.1	12.1
5	1378	12.3	12.3
5	1386	12.5	12.5
5	1394	12.7	12.7
5	1402	12.9	12.9
5	1410	13.1	13.1
5	1418	13.3	13.3
5	1426	13.5	13.5
5	1434	13.7	13.7
5	1442	13.9	13.9
5	1450	14.1	14.1
5	1458	14.3	14.3
5	1466	14.5	14.5
5	1474	14.7	14.7
5	1482	14.9	14.9
5	1490	15.1	15.1
5	1498	15.3	15.3
6	99	1.1	1.1
6	131	1.3	1.3
6	151	1.5	1.5
6	183	1.7	1.7
6	191	1.9	1.9
6	211	2.1	2.1
6	243	2.3	2.3
6	263	2.5	2.5
6	295	2.7	2.7
6	303	2.9	2.9
6	327	3.1	3.1
6	371	3.3	3.3
6	391	3.5	3.5
6	423	3.7	3.7
6	431	3.9	3.9
6	451	4.1	4.1
6	483	4.3	4.3
6	503	4.5	4.5
6	535	4.7	4.7
6	543	4.9	4.9
6	563	5.1	5.1
6	595	5.3	5.3
6	615	5.5	5.5
6	647	5.7	5.7
6	655	5.9	5.9
6	679	6.1	6.1
6	723	6.3	6.3
6	743	6.5	6.5
6	775	6.7	6.7
6	783	6.9	6.9
6	803	7.1	7.1
6	835	7.3	7.3
6	855	7.5	7.5
6	887	7.7	7.7
6	895	7.9	7.9
6	915	8.1	8.1
6	947	8.3	8.3
6	967	8.5	8.5
6	999	8.7	8.7
6	1007	8.9	8.9
6	1031	9.1	9.1
6	1075	9.3	9.3
6	1095	9.5	9.5
6	1127	9.7	9.7
6	1135	9.9	9.9
6	1155	10.1	10.1
6	1187	10.3	10.3
6	1207	10.5	10.5
6	1239	10.7	10.7
6	1247	10.9	10.9
6	1267	11.1	11.1
6	1299	11.3	11.3
6	1319	11.5	11.5
6	1351	11.7	11.7
6	1359	11.9	11.9
6	1371	12.1	12.1
6	1379	12.3	12.3
6	1387	12.5	12.5
6	1395	12.7	12.7
6	1403	12.9	12.9
6	1411	13.1	13.1
6	1419	13.3	13.3
6	1427	13.5	13.5
6	1435	13.7	13.7
6	1443	13.9	13.9
6	1451	14.1	14.1
6	1459	14.3	14.3
6	1467	14.5	14.5
6	1475	14.7	14.7
6	1483	14.9	14.9
6	1491	15.1	15.1
6	1499	15.3	15.3
7	100	1.1	1.1
7	132	1.3	1.3
7	152	1.5	1.5
7	184	1.7	1.7
7	192	1.9	1.9
7	212	2.1	2.1
7	244	2.3	2.3
7	264	2.5	2.5
7	296	2.7	2.7
7	304	2.9	2.9
7	328	3.1	3.1
7	372	3.3	3.3
7	392	3.5	3.5
7	424	3.7	3.7
7	432	3.9	3.9
7	452	4.1	4.1
7	484	4.3	4.3
7	504	4.5	4.5
7	536	4.7	4.7
7	544	4.9	4.9
7	564	5.1	5.1
7	596	5.3	5.3
7	616	5.5	5.5
7	648	5.7	5.7
7	656	5.9	5.9
7	680	6.1	6.1
7	724	6.3	6.3
7	744	6.5	6.5
7	776	6.7	6.7
7	784	6.9	6.9
7	804	7.1	7.1
7	836	7.3	7.3
7	856	7.5	7.5
7	888	7.7	7.7
7	896	7.9	7.9
7	916	8.1	8.1
7	948	8.3	8.3
7	968	8.5	8.5
7	1000	8.7	8.7
7	1008	8.9	8.9
7	1032	9.1	9.1
7	1076	9.3	9.3
7	1096	9.5	9.5
7	1128	9.7	9.7
7	1136	9.9	9.9
7	1156	10.1	10.1
7	1188	10.3	10.3
7	1208	10.5	10.5
7	1240	10.7	10.7
7	1248	10.9	10.9
7	1268	11.1	11.1
7	1300	11.3	11.3
7	1320	11.5	11.5
7	1352	11.7	11.7
7	1360	11.9	11.9
7	1372	12.1	12.1
7	1380	12.3	12.3
7	1388	12.5	12.5
7	1396	12.7	12.7
7	1404	12.9	12.9
7	1412	13.1	13.1
7	1420	13.3	13.3
7	1428	13.5	13.5
7	1436	13.7	13.7
7	1444	13.9	13.9
7	1452	14.1	14.1
7	1460	14.3	14.3
7	1468	14.5	14.5
7	1476	14.7	14.7
7	1484	14.9	14.9
7	1492	15.1	15.1
7	1500	15.3	15.3

