version 2
run MicrogridNetwork-0-20180311-12:13:11-4426
attr configname MicrogridNetwork
attr datetime 20180311-12:13:11
attr experiment MicrogridNetwork
attr inifile omnetpp.ini
attr iterationvars ""
attr iterationvarsf ""
attr measurement ""
attr network MicrogridNetwork
attr processid 4426
attr repetition 0
attr replication #0
attr resultdir results
attr runnumber 0
attr seedset 0

vector 0 MicrogridNetwork.pico[0].queue queueLength:vector ETV
attr interpolationmode sample-hold
attr title "queue length, vector"
vector 1 MicrogridNetwork.pico[1].queue queueLength:vector ETV
attr interpolationmode sample-hold
attr title "queue length, vector"
vector 2 MicrogridNetwork.pico[2].queue queueLength:vector ETV
attr interpolationmode sample-hold
attr title "queue length, vector"
vector 3 MicrogridNetwork.pico[3].queue queueLength:vector ETV
attr interpolationmode sample-hold
attr title "queue length, vector"
vector 4 MicrogridNetwork.pico[0].queue queueingTime:vector ETV
attr interpolationmode none
attr title "queueing time at dequeue, vector"
attr unit s
vector 5 MicrogridNetwork.pico[1].queue queueingTime:vector ETV
attr interpolationmode none
attr title "queueing time at dequeue, vector"
attr unit s
vector 6 MicrogridNetwork.pico[2].queue queueingTime:vector ETV
attr interpolationmode none
attr title "queueing time at dequeue, vector"
attr unit s
vector 7 MicrogridNetwork.pico[3].queue queueingTime:vector ETV
attr interpolationmode none
attr title "queueing time at dequeue, vector"
attr unit s
vector 8 MicrogridNetwork.macro[0] timeSensitiveQueueMsgTime:vector ETV
attr interpolationmode sample-hold
attr title "timeSensitiveQueueMsgTime, vector"
0	0	0	0
0	25	0.1	1
0	26	0.1	2
0	27	0.1	3
0	73	0.6	4
0	74	0.6	5
0	75	0.6	6
0	101	1.1	5
0	117	1.1	6
0	118	1.1	7
0	119	1.1	8
0	145	1.3	7
0	165	1.5	6
0	185	1.6	7
0	186	1.6	8
0	187	1.6	9
0	197	1.7	8
0	205	1.9	7
0	229	2.1	6
0	245	2.1	7
0	246	2.1	8
0	247	2.1	9
0	273	2.3	8
0	293	2.5	7
0	313	2.6	8
0	314	2.6	9
0	315	2.6	10
0	325	2.7	9
0	333	2.9	8
0	357	3.1	7
0	373	3.1	8
0	374	3.1	9
0	375	3.1	10
0	401	3.3	9
0	421	3.5	8
0	441	3.6	9
0	442	3.6	10
0	443	3.6	11
0	453	3.7	10
0	461	3.9	9
0	485	4.1	8
0	501	4.1	9
0	502	4.1	10
0	503	4.1	11
0	529	4.3	10
0	549	4.5	9
0	569	4.6	10
0	570	4.6	11
0	571	4.6	12
0	581	4.7	11
0	589	4.9	10
0	613	5.1	9
0	629	5.1	10
0	630	5.1	11
0	631	5.1	12
0	657	5.3	11
0	677	5.5	10
0	697	5.6	11
0	698	5.6	12
0	699	5.6	13
0	709	5.7	12
0	717	5.9	11
0	741	6.1	10
0	757	6.1	11
0	758	6.1	12
0	759	6.1	13
0	785	6.3	12
0	805	6.5	11
0	825	6.6	12
0	826	6.6	13
0	827	6.6	14
0	837	6.7	13
0	845	6.9	12
0	869	7.1	11
0	885	7.1	12
0	886	7.1	13
0	887	7.1	14
0	913	7.3	13
0	933	7.5	12
0	953	7.6	13
0	954	7.6	14
0	955	7.6	15
0	965	7.7	14
0	973	7.9	13
0	997	8.1	12
0	1013	8.1	13
0	1014	8.1	14
0	1015	8.1	15
0	1041	8.3	14
0	1061	8.5	13
0	1081	8.6	14
0	1082	8.6	15
0	1083	8.6	16
0	1093	8.7	15
0	1101	8.9	14
0	1125	9.1	13
0	1141	9.1	14
0	1142	9.1	15
0	1143	9.1	16
0	1169	9.3	15
0	1189	9.5	14
0	1209	9.6	15
0	1210	9.6	16
0	1211	9.6	17
0	1221	9.7	16
0	1229	9.9	15
0	1253	10.1	14
0	1269	10.1	15
0	1270	10.1	16
0	1271	10.1	17
0	1297	10.3	16
0	1317	10.5	15
0	1337	10.6	16
0	1338	10.6	17
0	1339	10.6	18
0	1349	10.7	17
0	1357	10.9	16
0	1381	11.1	15
0	1397	11.1	16
0	1398	11.1	17
0	1399	11.1	18
0	1425	11.3	17
0	1445	11.5	16
0	1465	11.6	17
0	1466	11.6	18
0	1467	11.6	19
0	1477	11.7	18
0	1485	11.9	17
0	1497	12.1	16
0	1505	12.3	15
0	1513	12.5	14
0	1521	12.7	13
0	1529	12.9	12
0	1537	13.1	11
0	1545	13.3	10
0	1553	13.5	9
0	1561	13.7	8
0	1569	13.9	7
0	1577	14.1	6
0	1585	14.3	5
0	1593	14.5	4
0	1601	14.7	3
0	1609	14.9	2
0	1617	15.1	1
0	1625	15.3	0
1	0	0	0
1	28	0.1	1
1	29	0.1	2
1	30	0.1	3
1	76	0.6	4
1	77	0.6	5
1	78	0.6	6
1	102	1.1	5
1	120	1.1	6
1	121	1.1	7
1	122	1.1	8
1	146	1.3	7
1	166	1.5	6
1	188	1.6	7
1	189	1.6	8
1	190	1.6	9
1	198	1.7	8
1	206	1.9	7
1	230	2.1	6
1	248	2.1	7
1	249	2.1	8
1	250	2.1	9
1	274	2.3	8
1	294	2.5	7
1	316	2.6	8
1	317	2.6	9
1	318	2.6	10
1	326	2.7	9
1	334	2.9	8
1	358	3.1	7
1	376	3.1	8
1	377	3.1	9
1	378	3.1	10
1	402	3.3	9
1	422	3.5	8
1	444	3.6	9
1	445	3.6	10
1	446	3.6	11
1	454	3.7	10
1	462	3.9	9
1	486	4.1	8
1	504	4.1	9
1	505	4.1	10
1	506	4.1	11
1	530	4.3	10
1	550	4.5	9
1	572	4.6	10
1	573	4.6	11
1	574	4.6	12
1	582	4.7	11
1	590	4.9	10
1	614	5.1	9
1	632	5.1	10
1	633	5.1	11
1	634	5.1	12
1	658	5.3	11
1	678	5.5	10
1	700	5.6	11
1	701	5.6	12
1	702	5.6	13
1	710	5.7	12
1	718	5.9	11
1	742	6.1	10
1	760	6.1	11
1	761	6.1	12
1	762	6.1	13
1	786	6.3	12
1	806	6.5	11
1	828	6.6	12
1	829	6.6	13
1	830	6.6	14
1	838	6.7	13
1	846	6.9	12
1	870	7.1	11
1	888	7.1	12
1	889	7.1	13
1	890	7.1	14
1	914	7.3	13
1	934	7.5	12
1	956	7.6	13
1	957	7.6	14
1	958	7.6	15
1	966	7.7	14
1	974	7.9	13
1	998	8.1	12
1	1016	8.1	13
1	1017	8.1	14
1	1018	8.1	15
1	1042	8.3	14
1	1062	8.5	13
1	1084	8.6	14
1	1085	8.6	15
1	1086	8.6	16
1	1094	8.7	15
1	1102	8.9	14
1	1126	9.1	13
1	1144	9.1	14
1	1145	9.1	15
1	1146	9.1	16
1	1170	9.3	15
1	1190	9.5	14
1	1212	9.6	15
1	1213	9.6	16
1	1214	9.6	17
1	1222	9.7	16
1	1230	9.9	15
1	1254	10.1	14
1	1272	10.1	15
1	1273	10.1	16
1	1274	10.1	17
1	1298	10.3	16
1	1318	10.5	15
1	1340	10.6	16
1	1341	10.6	17
1	1342	10.6	18
1	1350	10.7	17
1	1358	10.9	16
1	1382	11.1	15
1	1400	11.1	16
1	1401	11.1	17
1	1402	11.1	18
1	1426	11.3	17
1	1446	11.5	16
1	1468	11.6	17
1	1469	11.6	18
1	1470	11.6	19
1	1478	11.7	18
1	1486	11.9	17
1	1498	12.1	16
1	1506	12.3	15
1	1514	12.5	14
1	1522	12.7	13
1	1530	12.9	12
1	1538	13.1	11
1	1546	13.3	10
1	1554	13.5	9
1	1562	13.7	8
1	1570	13.9	7
1	1578	14.1	6
1	1586	14.3	5
1	1594	14.5	4
1	1602	14.7	3
1	1610	14.9	2
1	1618	15.1	1
1	1626	15.3	0
2	0	0	0
2	31	0.1	1
2	32	0.1	2
2	33	0.1	3
2	79	0.6	4
2	80	0.6	5
2	81	0.6	6
2	103	1.1	5
2	123	1.1	6
2	124	1.1	7
2	125	1.1	8
2	147	1.3	7
2	167	1.5	6
2	191	1.6	7
2	192	1.6	8
2	193	1.6	9
2	199	1.7	8
2	207	1.9	7
2	231	2.1	6
2	251	2.1	7
2	252	2.1	8
2	253	2.1	9
2	275	2.3	8
2	295	2.5	7
2	319	2.6	8
2	320	2.6	9
2	321	2.6	10
2	327	2.7	9
2	335	2.9	8
2	359	3.1	7
2	379	3.1	8
2	380	3.1	9
2	381	3.1	10
2	403	3.3	9
2	423	3.5	8
2	447	3.6	9
2	448	3.6	10
2	449	3.6	11
2	455	3.7	10
2	463	3.9	9
2	487	4.1	8
2	507	4.1	9
2	508	4.1	10
2	509	4.1	11
2	531	4.3	10
2	551	4.5	9
2	575	4.6	10
2	576	4.6	11
2	577	4.6	12
2	583	4.7	11
2	591	4.9	10
2	615	5.1	9
2	635	5.1	10
2	636	5.1	11
2	637	5.1	12
2	659	5.3	11
2	679	5.5	10
2	703	5.6	11
2	704	5.6	12
2	705	5.6	13
2	711	5.7	12
2	719	5.9	11
2	743	6.1	10
2	763	6.1	11
2	764	6.1	12
2	765	6.1	13
2	787	6.3	12
2	807	6.5	11
2	831	6.6	12
2	832	6.6	13
2	833	6.6	14
2	839	6.7	13
2	847	6.9	12
2	871	7.1	11
2	891	7.1	12
2	892	7.1	13
2	893	7.1	14
2	915	7.3	13
2	935	7.5	12
2	959	7.6	13
2	960	7.6	14
2	961	7.6	15
2	967	7.7	14
2	975	7.9	13
2	999	8.1	12
2	1019	8.1	13
2	1020	8.1	14
2	1021	8.1	15
2	1043	8.3	14
2	1063	8.5	13
2	1087	8.6	14
2	1088	8.6	15
2	1089	8.6	16
2	1095	8.7	15
2	1103	8.9	14
2	1127	9.1	13
2	1147	9.1	14
2	1148	9.1	15
2	1149	9.1	16
2	1171	9.3	15
2	1191	9.5	14
2	1215	9.6	15
2	1216	9.6	16
2	1217	9.6	17
2	1223	9.7	16
2	1231	9.9	15
2	1255	10.1	14
2	1275	10.1	15
2	1276	10.1	16
2	1277	10.1	17
2	1299	10.3	16
2	1319	10.5	15
2	1343	10.6	16
2	1344	10.6	17
2	1345	10.6	18
2	1351	10.7	17
2	1359	10.9	16
2	1383	11.1	15
2	1403	11.1	16
2	1404	11.1	17
2	1405	11.1	18
2	1427	11.3	17
2	1447	11.5	16
2	1471	11.6	17
2	1472	11.6	18
2	1473	11.6	19
2	1479	11.7	18
2	1487	11.9	17
2	1499	12.1	16
2	1507	12.3	15
2	1515	12.5	14
2	1523	12.7	13
2	1531	12.9	12
2	1539	13.1	11
2	1547	13.3	10
2	1555	13.5	9
2	1563	13.7	8
2	1571	13.9	7
2	1579	14.1	6
2	1587	14.3	5
2	1595	14.5	4
2	1603	14.7	3
2	1611	14.9	2
2	1619	15.1	1
2	1627	15.3	0
3	0	0	0
3	34	0.1	1
3	35	0.1	2
3	36	0.1	3
3	82	0.6	4
3	83	0.6	5
3	84	0.6	6
3	104	1.1	5
3	126	1.1	6
3	127	1.1	7
3	128	1.1	8
3	148	1.3	7
3	168	1.5	6
3	194	1.6	7
3	195	1.6	8
3	196	1.6	9
3	200	1.7	8
3	208	1.9	7
3	232	2.1	6
3	254	2.1	7
3	255	2.1	8
3	256	2.1	9
3	276	2.3	8
3	296	2.5	7
3	322	2.6	8
3	323	2.6	9
3	324	2.6	10
3	328	2.7	9
3	336	2.9	8
3	360	3.1	7
3	382	3.1	8
3	383	3.1	9
3	384	3.1	10
3	404	3.3	9
3	424	3.5	8
3	450	3.6	9
3	451	3.6	10
3	452	3.6	11
3	456	3.7	10
3	464	3.9	9
3	488	4.1	8
3	510	4.1	9
3	511	4.1	10
3	512	4.1	11
3	532	4.3	10
3	552	4.5	9
3	578	4.6	10
3	579	4.6	11
3	580	4.6	12
3	584	4.7	11
3	592	4.9	10
3	616	5.1	9
3	638	5.1	10
3	639	5.1	11
3	640	5.1	12
3	660	5.3	11
3	680	5.5	10
3	706	5.6	11
3	707	5.6	12
3	708	5.6	13
3	712	5.7	12
3	720	5.9	11
3	744	6.1	10
3	766	6.1	11
3	767	6.1	12
3	768	6.1	13
3	788	6.3	12
3	808	6.5	11
3	834	6.6	12
3	835	6.6	13
3	836	6.6	14
3	840	6.7	13
3	848	6.9	12
3	872	7.1	11
3	894	7.1	12
3	895	7.1	13
3	896	7.1	14
3	916	7.3	13
3	936	7.5	12
3	962	7.6	13
3	963	7.6	14
3	964	7.6	15
3	968	7.7	14
3	976	7.9	13
3	1000	8.1	12
3	1022	8.1	13
3	1023	8.1	14
3	1024	8.1	15
3	1044	8.3	14
3	1064	8.5	13
3	1090	8.6	14
3	1091	8.6	15
3	1092	8.6	16
3	1096	8.7	15
3	1104	8.9	14
3	1128	9.1	13
3	1150	9.1	14
3	1151	9.1	15
3	1152	9.1	16
3	1172	9.3	15
3	1192	9.5	14
3	1218	9.6	15
3	1219	9.6	16
3	1220	9.6	17
3	1224	9.7	16
3	1232	9.9	15
3	1256	10.1	14
3	1278	10.1	15
3	1279	10.1	16
3	1280	10.1	17
3	1300	10.3	16
3	1320	10.5	15
3	1346	10.6	16
3	1347	10.6	17
3	1348	10.6	18
3	1352	10.7	17
3	1360	10.9	16
3	1384	11.1	15
3	1406	11.1	16
3	1407	11.1	17
3	1408	11.1	18
3	1428	11.3	17
3	1448	11.5	16
3	1474	11.6	17
3	1475	11.6	18
3	1476	11.6	19
3	1480	11.7	18
3	1488	11.9	17
3	1500	12.1	16
3	1508	12.3	15
3	1516	12.5	14
3	1524	12.7	13
3	1532	12.9	12
3	1540	13.1	11
3	1548	13.3	10
3	1556	13.5	9
3	1564	13.7	8
3	1572	13.9	7
3	1580	14.1	6
3	1588	14.3	5
3	1596	14.5	4
3	1604	14.7	3
3	1612	14.9	2
3	1620	15.1	1
3	1628	15.3	0
4	101	1.1	1.1
4	145	1.3	1.3
4	165	1.5	1.5
4	197	1.7	1.7
4	205	1.9	1.9
4	229	2.1	2.1
4	273	2.3	2.3
4	293	2.5	2.5
4	325	2.7	2.7
4	333	2.9	2.9
4	357	3.1	3.1
4	401	3.3	3.3
4	421	3.5	3.5
4	453	3.7	3.7
4	461	3.9	3.9
4	485	4.1	4.1
4	529	4.3	4.3
4	549	4.5	4.5
4	581	4.7	4.7
4	589	4.9	4.9
4	613	5.1	5.1
4	657	5.3	5.3
4	677	5.5	5.5
4	709	5.7	5.7
4	717	5.9	5.9
4	741	6.1	6.1
4	785	6.3	6.3
4	805	6.5	6.5
4	837	6.7	6.7
4	845	6.9	6.9
4	869	7.1	7.1
4	913	7.3	7.3
4	933	7.5	7.5
4	965	7.7	7.7
4	973	7.9	7.9
4	997	8.1	8.1
4	1041	8.3	8.3
4	1061	8.5	8.5
4	1093	8.7	8.7
4	1101	8.9	8.9
4	1125	9.1	9.1
4	1169	9.3	9.3
4	1189	9.5	9.5
4	1221	9.7	9.7
4	1229	9.9	9.9
4	1253	10.1	10.1
4	1297	10.3	10.3
4	1317	10.5	10.5
4	1349	10.7	10.7
4	1357	10.9	10.9
4	1381	11.1	11.1
4	1425	11.3	11.3
4	1445	11.5	11.5
4	1477	11.7	11.7
4	1485	11.9	11.9
4	1497	12.1	12.1
4	1505	12.3	12.3
4	1513	12.5	12.5
4	1521	12.7	12.7
4	1529	12.9	12.9
4	1537	13.1	13.1
4	1545	13.3	13.3
4	1553	13.5	13.5
4	1561	13.7	13.7
4	1569	13.9	13.9
4	1577	14.1	14.1
4	1585	14.3	14.3
4	1593	14.5	14.5
4	1601	14.7	14.7
4	1609	14.9	14.9
4	1617	15.1	15.1
4	1625	15.3	15.3
5	102	1.1	1.1
5	146	1.3	1.3
5	166	1.5	1.5
5	198	1.7	1.7
5	206	1.9	1.9
5	230	2.1	2.1
5	274	2.3	2.3
5	294	2.5	2.5
5	326	2.7	2.7
5	334	2.9	2.9
5	358	3.1	3.1
5	402	3.3	3.3
5	422	3.5	3.5
5	454	3.7	3.7
5	462	3.9	3.9
5	486	4.1	4.1
5	530	4.3	4.3
5	550	4.5	4.5
5	582	4.7	4.7
5	590	4.9	4.9
5	614	5.1	5.1
5	658	5.3	5.3
5	678	5.5	5.5
5	710	5.7	5.7
5	718	5.9	5.9
5	742	6.1	6.1
5	786	6.3	6.3
5	806	6.5	6.5
5	838	6.7	6.7
5	846	6.9	6.9
5	870	7.1	7.1
5	914	7.3	7.3
5	934	7.5	7.5
5	966	7.7	7.7
5	974	7.9	7.9
5	998	8.1	8.1
5	1042	8.3	8.3
5	1062	8.5	8.5
5	1094	8.7	8.7
5	1102	8.9	8.9
5	1126	9.1	9.1
5	1170	9.3	9.3
5	1190	9.5	9.5
5	1222	9.7	9.7
5	1230	9.9	9.9
5	1254	10.1	10.1
5	1298	10.3	10.3
5	1318	10.5	10.5
5	1350	10.7	10.7
5	1358	10.9	10.9
5	1382	11.1	11.1
5	1426	11.3	11.3
5	1446	11.5	11.5
5	1478	11.7	11.7
5	1486	11.9	11.9
5	1498	12.1	12.1
5	1506	12.3	12.3
5	1514	12.5	12.5
5	1522	12.7	12.7
5	1530	12.9	12.9
5	1538	13.1	13.1
5	1546	13.3	13.3
5	1554	13.5	13.5
5	1562	13.7	13.7
5	1570	13.9	13.9
5	1578	14.1	14.1
5	1586	14.3	14.3
5	1594	14.5	14.5
5	1602	14.7	14.7
5	1610	14.9	14.9
5	1618	15.1	15.1
5	1626	15.3	15.3
6	103	1.1	1.1
6	147	1.3	1.3
6	167	1.5	1.5
6	199	1.7	1.7
6	207	1.9	1.9
6	231	2.1	2.1
6	275	2.3	2.3
6	295	2.5	2.5
6	327	2.7	2.7
6	335	2.9	2.9
6	359	3.1	3.1
6	403	3.3	3.3
6	423	3.5	3.5
6	455	3.7	3.7
6	463	3.9	3.9
6	487	4.1	4.1
6	531	4.3	4.3
6	551	4.5	4.5
6	583	4.7	4.7
6	591	4.9	4.9
6	615	5.1	5.1
6	659	5.3	5.3
6	679	5.5	5.5
6	711	5.7	5.7
6	719	5.9	5.9
6	743	6.1	6.1
6	787	6.3	6.3
6	807	6.5	6.5
6	839	6.7	6.7
6	847	6.9	6.9
6	871	7.1	7.1
6	915	7.3	7.3
6	935	7.5	7.5
6	967	7.7	7.7
6	975	7.9	7.9
6	999	8.1	8.1
6	1043	8.3	8.3
6	1063	8.5	8.5
6	1095	8.7	8.7
6	1103	8.9	8.9
6	1127	9.1	9.1
6	1171	9.3	9.3
6	1191	9.5	9.5
6	1223	9.7	9.7
6	1231	9.9	9.9
6	1255	10.1	10.1
6	1299	10.3	10.3
6	1319	10.5	10.5
6	1351	10.7	10.7
6	1359	10.9	10.9
6	1383	11.1	11.1
6	1427	11.3	11.3
6	1447	11.5	11.5
6	1479	11.7	11.7
6	1487	11.9	11.9
6	1499	12.1	12.1
6	1507	12.3	12.3
6	1515	12.5	12.5
6	1523	12.7	12.7
6	1531	12.9	12.9
6	1539	13.1	13.1
6	1547	13.3	13.3
6	1555	13.5	13.5
6	1563	13.7	13.7
6	1571	13.9	13.9
6	1579	14.1	14.1
6	1587	14.3	14.3
6	1595	14.5	14.5
6	1603	14.7	14.7
6	1611	14.9	14.9
6	1619	15.1	15.1
6	1627	15.3	15.3
7	104	1.1	1.1
7	148	1.3	1.3
7	168	1.5	1.5
7	200	1.7	1.7
7	208	1.9	1.9
7	232	2.1	2.1
7	276	2.3	2.3
7	296	2.5	2.5
7	328	2.7	2.7
7	336	2.9	2.9
7	360	3.1	3.1
7	404	3.3	3.3
7	424	3.5	3.5
7	456	3.7	3.7
7	464	3.9	3.9
7	488	4.1	4.1
7	532	4.3	4.3
7	552	4.5	4.5
7	584	4.7	4.7
7	592	4.9	4.9
7	616	5.1	5.1
7	660	5.3	5.3
7	680	5.5	5.5
7	712	5.7	5.7
7	720	5.9	5.9
7	744	6.1	6.1
7	788	6.3	6.3
7	808	6.5	6.5
7	840	6.7	6.7
7	848	6.9	6.9
7	872	7.1	7.1
7	916	7.3	7.3
7	936	7.5	7.5
7	968	7.7	7.7
7	976	7.9	7.9
7	1000	8.1	8.1
7	1044	8.3	8.3
7	1064	8.5	8.5
7	1096	8.7	8.7
7	1104	8.9	8.9
7	1128	9.1	9.1
7	1172	9.3	9.3
7	1192	9.5	9.5
7	1224	9.7	9.7
7	1232	9.9	9.9
7	1256	10.1	10.1
7	1300	10.3	10.3
7	1320	10.5	10.5
7	1352	10.7	10.7
7	1360	10.9	10.9
7	1384	11.1	11.1
7	1428	11.3	11.3
7	1448	11.5	11.5
7	1480	11.7	11.7
7	1488	11.9	11.9
7	1500	12.1	12.1
7	1508	12.3	12.3
7	1516	12.5	12.5
7	1524	12.7	12.7
7	1532	12.9	12.9
7	1540	13.1	13.1
7	1548	13.3	13.3
7	1556	13.5	13.5
7	1564	13.7	13.7
7	1572	13.9	13.9
7	1580	14.1	14.1
7	1588	14.3	14.3
7	1596	14.5	14.5
7	1604	14.7	14.7
7	1612	14.9	14.9
7	1620	15.1	15.1
7	1628	15.3	15.3
8	129	1.2	1
8	130	1.2	1
8	131	1.2	1
8	132	1.2	1
8	149	1.4	1
8	150	1.4	1
8	151	1.4	1
8	152	1.4	1
8	181	1.6	1
8	182	1.6	1
8	183	1.6	1
8	184	1.6	1
8	201	1.8	1
8	202	1.8	1
8	203	1.8	1
8	204	1.8	1
8	221	2	1
8	222	2	1
8	223	2	1
8	224	2	1
8	257	2.2	1
8	258	2.2	1
8	259	2.2	1
8	260	2.2	1
8	277	2.4	1
8	278	2.4	1
8	279	2.4	1
8	280	2.4	1
8	309	2.6	1
8	310	2.6	1
8	311	2.6	1
8	312	2.6	1
8	329	2.8	1
8	330	2.8	1
8	331	2.8	1
8	332	2.8	2
8	349	3	2
8	350	3	2
8	351	3	2
8	352	3	2
8	385	3.2	2
8	386	3.2	2
8	387	3.2	2
8	388	3.2	2
8	405	3.4	2
8	406	3.4	2
8	407	3.4	2
8	408	3.4	2
8	437	3.6	2
8	438	3.6	2
8	439	3.6	2
8	440	3.6	2
8	457	3.8	2
8	458	3.8	2
8	459	3.8	2
8	460	3.8	2
8	477	4	2
8	478	4	2
8	479	4	2
8	480	4	2
8	513	4.2	2
8	514	4.2	2
8	515	4.2	2
8	516	4.2	2
8	533	4.4	2
8	534	4.4	2
8	535	4.4	2
8	536	4.4	2
8	565	4.6	2
8	566	4.6	2
8	567	4.6	2
8	568	4.6	2
8	585	4.8	2
8	586	4.8	2
8	587	4.8	2
8	588	4.8	3
8	605	5	3
8	606	5	3
8	607	5	3
8	608	5	3
8	641	5.2	3
8	642	5.2	3
8	643	5.2	3
8	644	5.2	3
8	661	5.4	3
8	662	5.4	3
8	663	5.4	3
8	664	5.4	3
8	693	5.6	3
8	694	5.6	3
8	695	5.6	3
8	696	5.6	3
8	713	5.8	3
8	714	5.8	3
8	715	5.8	3
8	716	5.8	3
8	733	6	3
8	734	6	3
8	735	6	3
8	736	6	3
8	769	6.2	3
8	770	6.2	3
8	771	6.2	3
8	772	6.2	3
8	789	6.4	3
8	790	6.4	3
8	791	6.4	3
8	792	6.4	3
8	821	6.6	3
8	822	6.6	3
8	823	6.6	3
8	824	6.6	3
8	841	6.8	3
8	842	6.8	3
8	843	6.8	3
8	844	6.8	4
8	861	7	4
8	862	7	4
8	863	7	4
8	864	7	4
8	897	7.2	4
8	898	7.2	4
8	899	7.2	4
8	900	7.2	4
8	917	7.4	4
8	918	7.4	4
8	919	7.4	4
8	920	7.4	4
8	949	7.6	4
8	950	7.6	4
8	951	7.6	4
8	952	7.6	4
8	969	7.8	4
8	970	7.8	4
8	971	7.8	4
8	972	7.8	4
8	989	8	4
8	990	8	4
8	991	8	4
8	992	8	4
8	1025	8.2	4
8	1026	8.2	4
8	1027	8.2	4
8	1028	8.2	4
8	1045	8.4	4
8	1046	8.4	4
8	1047	8.4	4
8	1048	8.4	4
8	1077	8.6	4
8	1078	8.6	4
8	1079	8.6	4
8	1080	8.6	4
8	1097	8.8	4
8	1098	8.8	4
8	1099	8.8	4
8	1100	8.8	5
8	1117	9	5
8	1118	9	5
8	1119	9	5
8	1120	9	5
8	1153	9.2	5
8	1154	9.2	5
8	1155	9.2	5
8	1156	9.2	5
8	1173	9.4	5
8	1174	9.4	5
8	1175	9.4	5
8	1176	9.4	5
8	1205	9.6	5
8	1206	9.6	5
8	1207	9.6	5
8	1208	9.6	5
8	1225	9.8	5
8	1226	9.8	5
8	1227	9.8	5
8	1228	9.8	5
8	1245	10	5
8	1246	10	5
8	1247	10	5
8	1248	10	5
8	1281	10.2	5
8	1282	10.2	5
8	1283	10.2	5
8	1284	10.2	5
8	1301	10.4	5
8	1302	10.4	5
8	1303	10.4	5
8	1304	10.4	5
8	1333	10.6	5
8	1334	10.6	5
8	1335	10.6	5
8	1336	10.6	5
8	1353	10.8	5
8	1354	10.8	5
8	1355	10.8	5
8	1356	10.8	6
8	1373	11	6
8	1374	11	6
8	1375	11	6
8	1376	11	6
8	1409	11.2	6
8	1410	11.2	6
8	1411	11.2	6
8	1412	11.2	6
8	1429	11.4	6
8	1430	11.4	6
8	1431	11.4	6
8	1432	11.4	6
8	1461	11.6	6
8	1462	11.6	6
8	1463	11.6	6
8	1464	11.6	6
8	1481	11.8	6
8	1482	11.8	6
8	1483	11.8	6
8	1484	11.8	6
8	1489	12	6
8	1490	12	6
8	1491	12	6
8	1492	12	6
8	1501	12.2	6
8	1502	12.2	6
8	1503	12.2	6
8	1504	12.2	6
8	1509	12.4	6
8	1510	12.4	6
8	1511	12.4	6
8	1512	12.4	6
8	1517	12.6	6
8	1518	12.6	6
8	1519	12.6	6
8	1520	12.6	6
8	1525	12.8	6
8	1526	12.8	6
8	1527	12.8	6
8	1528	12.8	7
8	1533	13	7
8	1534	13	7
8	1535	13	7
8	1536	13	7
8	1541	13.2	7
8	1542	13.2	7
8	1543	13.2	7
8	1544	13.2	7
8	1549	13.4	7
8	1550	13.4	7
8	1551	13.4	7
8	1552	13.4	7
8	1557	13.6	7
8	1558	13.6	7
8	1559	13.6	7
8	1560	13.6	7
8	1565	13.8	7
8	1566	13.8	7
8	1567	13.8	7
8	1568	13.8	7
8	1573	14	7
8	1574	14	7
8	1575	14	7
8	1576	14	7
8	1581	14.2	7
8	1582	14.2	7
8	1583	14.2	7
8	1584	14.2	7
8	1589	14.4	7
8	1590	14.4	7
8	1591	14.4	7
8	1592	14.4	7
8	1597	14.6	7
8	1598	14.6	7
8	1599	14.6	7
8	1600	14.6	7
8	1605	14.8	7
8	1606	14.8	7
8	1607	14.8	7
8	1608	14.8	8
8	1613	15	8
8	1614	15	8
8	1615	15	8
8	1616	15	8
8	1621	15.2	8
8	1622	15.2	8
8	1623	15.2	8
8	1624	15.2	8
8	1629	15.4	8
8	1630	15.4	8
8	1631	15.4	8
8	1632	15.4	8

