version 2
run MicrogridNetwork-0-20180503-17:44:27-16124
attr configname MicrogridNetwork
attr datetime 20180503-17:44:27
attr experiment MicrogridNetwork
attr inifile omnetpp.ini
attr iterationvars ""
attr iterationvarsf ""
attr measurement ""
attr network MicrogridNetwork
attr processid 16124
attr repetition 0
attr replication #0
attr resultdir results
attr runnumber 0
attr seedset 0

vector 0 MicrogridNetwork.pico[0].queue queueLength:vector ETV
attr interpolationmode sample-hold
attr title "queue length, vector"
vector 1 MicrogridNetwork.pico[0].queue averageThroughput:vector ETV
attr interpolationmode sample-hold
attr title "average throughput, vector"
vector 2 MicrogridNetwork.pico[1].queue queueLength:vector ETV
attr interpolationmode sample-hold
attr title "queue length, vector"
vector 3 MicrogridNetwork.pico[1].queue averageThroughput:vector ETV
attr interpolationmode sample-hold
attr title "average throughput, vector"
vector 4 MicrogridNetwork.pico[2].queue queueLength:vector ETV
attr interpolationmode sample-hold
attr title "queue length, vector"
vector 5 MicrogridNetwork.pico[2].queue averageThroughput:vector ETV
attr interpolationmode sample-hold
attr title "average throughput, vector"
vector 6 MicrogridNetwork.pico[3].queue queueLength:vector ETV
attr interpolationmode sample-hold
attr title "queue length, vector"
vector 7 MicrogridNetwork.pico[3].queue averageThroughput:vector ETV
attr interpolationmode sample-hold
attr title "average throughput, vector"
vector 8 MicrogridNetwork.pico[0].queue queueingTime:vector ETV
attr interpolationmode none
attr title "queueing time at dequeue, vector"
attr unit s
vector 9 MicrogridNetwork.pico[1].queue queueingTime:vector ETV
attr interpolationmode none
attr title "queueing time at dequeue, vector"
attr unit s
vector 10 MicrogridNetwork.pico[2].queue queueingTime:vector ETV
attr interpolationmode none
attr title "queueing time at dequeue, vector"
attr unit s
vector 11 MicrogridNetwork.pico[3].queue queueingTime:vector ETV
attr interpolationmode none
attr title "queueing time at dequeue, vector"
attr unit s
vector 12 MicrogridNetwork.macro[0] timeSensitiveQueueMsgTime:vector ETV
attr interpolationmode sample-hold
attr title "timeSensitiveQueueMsgTime, vector"
vector 13 MicrogridNetwork.macro[0] timeTolerantQueueMsgTime:vector ETV
attr interpolationmode sample-hold
attr title "timeTolerantQueueMsgTime, vector"
vector 14 MicrogridNetwork.macro[0] timeMediumQueueMsgTime:vector ETV
attr interpolationmode sample-hold
attr title "timeMediumQueueMsgTime, vector"
0	0	0	0
0	97	0.1	1
0	98	0.1	2
0	99	0.1	3
0	100	0.1	4
0	101	0.1	5
0	102	0.1	6
0	103	0.1	7
0	104	0.1	8
0	105	0.1	9
0	106	0.1	10
0	107	0.1	11
0	108	0.1	12
0	289	0.6	13
0	290	0.6	14
0	291	0.6	15
0	292	0.6	16
0	293	0.6	17
0	294	0.6	18
0	295	0.6	19
0	296	0.6	20
0	297	0.6	21
0	298	0.6	22
0	299	0.6	23
0	300	0.6	24
0	437	1.1	23
0	489	1.1	24
0	490	1.1	25
0	491	1.1	26
0	492	1.1	27
0	493	1.1	28
0	494	1.1	29
0	495	1.1	30
0	496	1.1	31
0	497	1.1	32
0	498	1.1	33
0	499	1.1	34
0	500	1.1	35
0	589	1.3	34
0	645	1.5	33
0	701	1.6	34
0	702	1.6	35
0	703	1.6	36
0	704	1.6	37
0	705	1.6	38
0	706	1.6	39
0	707	1.6	40
0	708	1.6	41
0	709	1.6	42
0	710	1.6	43
0	711	1.6	44
0	712	1.6	45
0	749	1.7	44
0	805	1.9	43
0	865	2.1	42
0	917	2.1	43
0	918	2.1	44
0	919	2.1	45
0	920	2.1	46
0	921	2.1	47
0	922	2.1	48
0	923	2.1	49
0	924	2.1	50
0	925	2.1	51
0	926	2.1	52
0	927	2.1	53
0	928	2.1	54
0	1017	2.3	53
0	1073	2.5	52
0	1129	2.6	53
0	1130	2.6	54
0	1131	2.6	55
0	1132	2.6	56
0	1133	2.6	57
0	1134	2.6	58
0	1135	2.6	59
0	1136	2.6	60
0	1137	2.6	61
0	1138	2.6	62
0	1139	2.6	63
0	1140	2.6	64
0	1177	2.7	63
0	1233	2.9	62
0	1293	3.1	61
0	1345	3.1	62
0	1346	3.1	63
0	1347	3.1	64
0	1348	3.1	65
0	1349	3.1	66
0	1350	3.1	67
0	1351	3.1	68
0	1352	3.1	69
0	1353	3.1	70
0	1354	3.1	71
0	1355	3.1	72
0	1356	3.1	73
0	1445	3.3	72
0	1501	3.5	71
0	1557	3.6	72
0	1558	3.6	73
0	1559	3.6	74
0	1560	3.6	75
0	1561	3.6	76
0	1562	3.6	77
0	1563	3.6	78
0	1564	3.6	79
0	1565	3.6	80
0	1566	3.6	81
0	1567	3.6	82
0	1568	3.6	83
0	1605	3.7	82
0	1661	3.9	81
0	1721	4.1	80
0	1773	4.1	81
0	1774	4.1	82
0	1775	4.1	83
0	1776	4.1	84
0	1777	4.1	85
0	1778	4.1	86
0	1779	4.1	87
0	1780	4.1	88
0	1781	4.1	89
0	1782	4.1	90
0	1783	4.1	91
0	1784	4.1	92
0	1873	4.3	91
0	1929	4.5	90
0	1985	4.6	91
0	1986	4.6	92
0	1987	4.6	93
0	1988	4.6	94
0	1989	4.6	95
0	1990	4.6	96
0	1991	4.6	97
0	1992	4.6	98
0	1993	4.6	99
0	1994	4.6	100
0	1995	4.6	101
0	1996	4.6	102
0	2033	4.7	101
0	2089	4.9	100
0	2149	5.1	99
0	2201	5.1	100
0	2202	5.1	101
0	2203	5.1	102
0	2204	5.1	103
0	2205	5.1	104
0	2206	5.1	105
0	2207	5.1	106
0	2208	5.1	107
0	2209	5.1	108
0	2210	5.1	109
0	2211	5.1	110
0	2212	5.1	111
0	2301	5.3	110
0	2357	5.5	109
0	2413	5.6	110
0	2414	5.6	111
0	2415	5.6	112
0	2416	5.6	113
0	2417	5.6	114
0	2418	5.6	115
0	2419	5.6	116
0	2420	5.6	117
0	2421	5.6	118
0	2422	5.6	119
0	2423	5.6	120
0	2424	5.6	121
0	2461	5.7	120
0	2517	5.9	119
0	2577	6.1	118
0	2629	6.1	119
0	2630	6.1	120
0	2631	6.1	121
0	2632	6.1	122
0	2633	6.1	123
0	2634	6.1	124
0	2635	6.1	125
0	2636	6.1	126
0	2637	6.1	127
0	2638	6.1	128
0	2639	6.1	129
0	2640	6.1	130
0	2729	6.3	129
0	2785	6.5	128
0	2841	6.6	129
0	2842	6.6	130
0	2843	6.6	131
0	2844	6.6	132
0	2845	6.6	133
0	2846	6.6	134
0	2847	6.6	135
0	2848	6.6	136
0	2849	6.6	137
0	2850	6.6	138
0	2851	6.6	139
0	2852	6.6	140
0	2889	6.7	139
0	2945	6.9	138
0	3005	7.1	137
0	3057	7.1	138
0	3058	7.1	139
0	3059	7.1	140
0	3060	7.1	141
0	3061	7.1	142
0	3062	7.1	143
0	3063	7.1	144
0	3064	7.1	145
0	3065	7.1	146
0	3066	7.1	147
0	3067	7.1	148
0	3068	7.1	149
0	3157	7.3	148
0	3213	7.5	147
0	3269	7.6	148
0	3270	7.6	149
0	3271	7.6	150
0	3272	7.6	151
0	3273	7.6	152
0	3274	7.6	153
0	3275	7.6	154
0	3276	7.6	155
0	3277	7.6	156
0	3278	7.6	157
0	3279	7.6	158
0	3280	7.6	159
0	3317	7.7	158
0	3373	7.9	157
0	3433	8.1	156
0	3485	8.1	157
0	3486	8.1	158
0	3487	8.1	159
0	3488	8.1	160
0	3489	8.1	161
0	3490	8.1	162
0	3491	8.1	163
0	3492	8.1	164
0	3493	8.1	165
0	3494	8.1	166
0	3495	8.1	167
0	3496	8.1	168
0	3585	8.3	167
0	3641	8.5	166
0	3697	8.6	167
0	3698	8.6	168
0	3699	8.6	169
0	3700	8.6	170
0	3701	8.6	171
0	3702	8.6	172
0	3703	8.6	173
0	3704	8.6	174
0	3705	8.6	175
0	3706	8.6	176
0	3707	8.6	177
0	3708	8.6	178
0	3745	8.7	177
0	3801	8.9	176
0	3861	9.1	175
0	3913	9.1	176
0	3914	9.1	177
0	3915	9.1	178
0	3916	9.1	179
0	3917	9.1	180
0	3918	9.1	181
0	3919	9.1	182
0	3920	9.1	183
0	3921	9.1	184
0	3922	9.1	185
0	3923	9.1	186
0	3924	9.1	187
0	4013	9.3	186
0	4069	9.5	185
0	4125	9.6	186
0	4126	9.6	187
0	4127	9.6	188
0	4128	9.6	189
0	4129	9.6	190
0	4130	9.6	191
0	4131	9.6	192
0	4132	9.6	193
0	4133	9.6	194
0	4134	9.6	195
0	4135	9.6	196
0	4136	9.6	197
0	4173	9.7	196
0	4229	9.9	195
0	4289	10.1	194
0	4341	10.1	195
0	4342	10.1	196
0	4343	10.1	197
0	4344	10.1	198
0	4345	10.1	199
0	4346	10.1	200
0	4347	10.1	201
0	4348	10.1	202
0	4349	10.1	203
0	4350	10.1	204
0	4351	10.1	205
0	4352	10.1	206
0	4441	10.3	205
0	4497	10.5	204
0	4553	10.6	205
0	4554	10.6	206
0	4555	10.6	207
0	4556	10.6	208
0	4557	10.6	209
0	4558	10.6	210
0	4559	10.6	211
0	4560	10.6	212
0	4561	10.6	213
0	4562	10.6	214
0	4563	10.6	215
0	4564	10.6	216
0	4601	10.7	215
0	4657	10.9	214
0	4717	11.1	213
0	4769	11.1	214
0	4770	11.1	215
0	4771	11.1	216
0	4772	11.1	217
0	4773	11.1	218
0	4774	11.1	219
0	4775	11.1	220
0	4776	11.1	221
0	4777	11.1	222
0	4778	11.1	223
0	4779	11.1	224
0	4780	11.1	225
0	4869	11.3	224
0	4925	11.5	223
0	4981	11.6	224
0	4982	11.6	225
0	4983	11.6	226
0	4984	11.6	227
0	4985	11.6	228
0	4986	11.6	229
0	4987	11.6	230
0	4988	11.6	231
0	4989	11.6	232
0	4990	11.6	233
0	4991	11.6	234
0	4992	11.6	235
0	5029	11.7	234
0	5085	11.9	233
0	5097	12.1	232
0	5105	12.3	231
0	5113	12.5	230
0	5121	12.7	229
0	5129	12.9	228
0	5137	13.1	227
0	5145	13.3	226
0	5153	13.5	225
0	5161	13.7	224
0	5169	13.9	223
0	5177	14.1	222
0	5185	14.3	221
0	5193	14.5	220
0	5201	14.7	219
0	5209	14.9	218
0	5217	15.1	217
0	5225	15.3	216
0	5233	15.5	215
0	5241	15.7	214
0	5249	15.9	213
0	5257	16.1	212
0	5265	16.3	211
0	5273	16.5	210
0	5281	16.7	209
0	5289	16.9	208
0	5297	17.1	207
0	5305	17.3	206
0	5313	17.5	205
0	5321	17.7	204
0	5329	17.9	203
0	5337	18.1	202
0	5345	18.3	201
0	5353	18.5	200
0	5361	18.7	199
0	5369	18.9	198
0	5377	19.1	197
0	5385	19.3	196
0	5393	19.5	195
0	5401	19.7	194
0	5409	19.9	193
0	5417	20.1	192
0	5425	20.3	191
0	5433	20.5	190
0	5441	20.7	189
0	5449	20.9	188
0	5457	21.1	187
0	5465	21.3	186
0	5473	21.5	185
0	5481	21.7	184
0	5489	21.9	183
0	5497	22.1	182
0	5505	22.3	181
0	5513	22.5	180
0	5521	22.7	179
0	5529	22.9	178
0	5537	23.1	177
0	5545	23.3	176
0	5553	23.5	175
0	5561	23.7	174
0	5569	23.9	173
0	5577	24.1	172
0	5585	24.3	171
0	5593	24.5	170
0	5601	24.7	169
0	5609	24.9	168
0	5617	25.1	167
0	5625	25.3	166
0	5633	25.5	165
0	5641	25.7	164
0	5649	25.9	163
0	5657	26.1	162
0	5665	26.3	161
0	5673	26.5	160
0	5681	26.7	159
0	5689	26.9	158
0	5697	27.1	157
0	5705	27.3	156
0	5713	27.5	155
0	5721	27.7	154
0	5729	27.9	153
0	5737	28.1	152
0	5745	28.3	151
0	5753	28.5	150
0	5761	28.7	149
0	5769	28.9	148
0	5777	29.1	147
0	5785	29.3	146
0	5793	29.5	145
0	5801	29.7	144
0	5809	29.9	143
0	5817	30.1	142
0	5825	30.3	141
0	5833	30.5	140
0	5841	30.7	139
0	5849	30.9	138
0	5857	31.1	137
0	5865	31.3	136
0	5873	31.5	135
0	5881	31.7	134
0	5889	31.9	133
0	5897	32.1	132
0	5905	32.3	131
0	5913	32.5	130
0	5921	32.7	129
0	5929	32.9	128
0	5937	33.1	127
0	5945	33.3	126
0	5953	33.5	125
0	5961	33.7	124
0	5969	33.9	123
0	5977	34.1	122
0	5985	34.3	121
0	5993	34.5	120
0	6001	34.7	119
0	6009	34.9	118
0	6017	35.1	117
0	6025	35.3	116
0	6033	35.5	115
0	6041	35.7	114
0	6049	35.9	113
0	6057	36.1	112
0	6065	36.3	111
0	6073	36.5	110
0	6081	36.7	109
0	6089	36.9	108
0	6097	37.1	107
0	6105	37.3	106
0	6113	37.5	105
0	6121	37.7	104
0	6129	37.9	103
0	6137	38.1	102
0	6145	38.3	101
0	6153	38.5	100
0	6161	38.7	99
0	6169	38.9	98
0	6177	39.1	97
0	6185	39.3	96
0	6193	39.5	95
0	6201	39.7	94
0	6209	39.9	93
0	6217	40.1	92
0	6225	40.3	91
0	6233	40.5	90
0	6241	40.7	89
0	6249	40.9	88
0	6257	41.1	87
0	6265	41.3	86
0	6273	41.5	85
0	6281	41.7	84
0	6289	41.9	83
0	6297	42.1	82
0	6305	42.3	81
0	6313	42.5	80
0	6321	42.7	79
0	6329	42.9	78
0	6337	43.1	77
0	6345	43.3	76
0	6353	43.5	75
0	6361	43.7	74
0	6369	43.9	73
0	6377	44.1	72
0	6385	44.3	71
0	6393	44.5	70
0	6401	44.7	69
0	6409	44.9	68
0	6417	45.1	67
0	6425	45.3	66
0	6433	45.5	65
0	6441	45.7	64
0	6449	45.9	63
0	6457	46.1	62
0	6465	46.3	61
0	6473	46.5	60
0	6481	46.7	59
0	6489	46.9	58
0	6497	47.1	57
0	6505	47.3	56
0	6513	47.5	55
0	6521	47.7	54
0	6529	47.9	53
0	6537	48.1	52
0	6545	48.3	51
0	6553	48.5	50
0	6561	48.7	49
0	6569	48.9	48
0	6577	49.1	47
0	6585	49.3	46
0	6593	49.5	45
0	6601	49.7	44
0	6609	49.9	43
0	6617	50.1	42
0	6625	50.3	41
0	6633	50.5	40
0	6641	50.7	39
0	6649	50.9	38
0	6657	51.1	37
0	6665	51.3	36
0	6673	51.5	35
0	6681	51.7	34
0	6689	51.9	33
0	6697	52.1	32
0	6705	52.3	31
0	6713	52.5	30
0	6721	52.7	29
0	6729	52.9	28
0	6737	53.1	27
0	6745	53.3	26
0	6753	53.5	25
0	6761	53.7	24
0	6769	53.9	23
0	6777	54.1	22
0	6785	54.3	21
0	6793	54.5	20
0	6801	54.7	19
0	6809	54.9	18
0	6817	55.1	17
0	6825	55.3	16
0	6833	55.5	15
0	6841	55.7	14
0	6849	55.9	13
0	6857	56.1	12
0	6865	56.3	11
0	6873	56.5	10
0	6881	56.7	9
0	6889	56.9	8
0	6897	57.1	7
0	6905	57.3	6
0	6913	57.5	5
0	6921	57.7	4
0	6929	57.9	3
0	6937	58.1	2
0	6945	58.3	1
0	6953	58.5	0
1	0	0	0
1	437	1.1	24
1	589	1.3	36
1	645	1.5	36
1	749	1.7	48
1	805	1.9	48
1	865	2.1	48
1	1017	2.3	60
1	1073	2.5	60
1	1177	2.7	72
1	1233	2.9	72
1	1293	3.1	72
1	1445	3.3	84
1	1501	3.5	84
1	1605	3.7	96
1	1661	3.9	96
1	1721	4.1	96
1	1873	4.3	108
1	1929	4.5	108
1	2033	4.7	120
1	2089	4.9	120
1	2149	5.1	120
1	2301	5.3	132
1	2357	5.5	132
1	2461	5.7	144
1	2517	5.9	144
1	2577	6.1	144
1	2729	6.3	156
1	2785	6.5	156
1	2889	6.7	168
1	2945	6.9	168
1	3005	7.1	168
1	3157	7.3	180
1	3213	7.5	180
1	3317	7.7	192
1	3373	7.9	192
1	3433	8.1	192
1	3585	8.3	204
1	3641	8.5	204
1	3745	8.7	216
1	3801	8.9	216
1	3861	9.1	216
1	4013	9.3	228
1	4069	9.5	228
1	4173	9.7	240
1	4229	9.9	240
1	4289	10.1	240
1	4441	10.3	252
1	4497	10.5	252
1	4601	10.7	264
1	4657	10.9	264
1	4717	11.1	264
1	4869	11.3	276
1	4925	11.5	276
1	5029	11.7	288
1	5085	11.9	288
1	5097	12.1	288
1	5105	12.3	288
1	5113	12.5	288
1	5121	12.7	288
1	5129	12.9	288
1	5137	13.1	288
1	5145	13.3	288
1	5153	13.5	288
1	5161	13.7	288
1	5169	13.9	288
1	5177	14.1	288
1	5185	14.3	288
1	5193	14.5	288
1	5201	14.7	288
1	5209	14.9	288
1	5217	15.1	288
1	5225	15.3	288
1	5233	15.5	288
1	5241	15.7	288
1	5249	15.9	288
1	5257	16.1	288
1	5265	16.3	288
1	5273	16.5	288
1	5281	16.7	288
1	5289	16.9	288
1	5297	17.1	288
1	5305	17.3	288
1	5313	17.5	288
1	5321	17.7	288
1	5329	17.9	288
1	5337	18.1	288
1	5345	18.3	288
1	5353	18.5	288
1	5361	18.7	288
1	5369	18.9	288
1	5377	19.1	288
1	5385	19.3	288
1	5393	19.5	288
1	5401	19.7	288
1	5409	19.9	288
1	5417	20.1	288
1	5425	20.3	288
1	5433	20.5	288
1	5441	20.7	288
1	5449	20.9	288
1	5457	21.1	288
1	5465	21.3	288
1	5473	21.5	288
1	5481	21.7	288
1	5489	21.9	288
1	5497	22.1	288
1	5505	22.3	288
1	5513	22.5	288
1	5521	22.7	288
1	5529	22.9	288
1	5537	23.1	288
1	5545	23.3	288
1	5553	23.5	288
1	5561	23.7	288
1	5569	23.9	288
1	5577	24.1	288
1	5585	24.3	288
1	5593	24.5	288
1	5601	24.7	288
1	5609	24.9	288
1	5617	25.1	288
1	5625	25.3	288
1	5633	25.5	288
1	5641	25.7	288
1	5649	25.9	288
1	5657	26.1	288
1	5665	26.3	288
1	5673	26.5	288
1	5681	26.7	288
1	5689	26.9	288
1	5697	27.1	288
1	5705	27.3	288
1	5713	27.5	288
1	5721	27.7	288
1	5729	27.9	288
1	5737	28.1	288
1	5745	28.3	288
1	5753	28.5	288
1	5761	28.7	288
1	5769	28.9	288
1	5777	29.1	288
1	5785	29.3	288
1	5793	29.5	288
1	5801	29.7	288
1	5809	29.9	288
1	5817	30.1	288
1	5825	30.3	288
1	5833	30.5	288
1	5841	30.7	288
1	5849	30.9	288
1	5857	31.1	288
1	5865	31.3	288
1	5873	31.5	288
1	5881	31.7	288
1	5889	31.9	288
1	5897	32.1	288
1	5905	32.3	288
1	5913	32.5	288
1	5921	32.7	288
1	5929	32.9	288
1	5937	33.1	288
1	5945	33.3	288
1	5953	33.5	288
1	5961	33.7	288
1	5969	33.9	288
1	5977	34.1	288
1	5985	34.3	288
1	5993	34.5	288
1	6001	34.7	288
1	6009	34.9	288
1	6017	35.1	288
1	6025	35.3	288
1	6033	35.5	288
1	6041	35.7	288
1	6049	35.9	288
1	6057	36.1	288
1	6065	36.3	288
1	6073	36.5	288
1	6081	36.7	288
1	6089	36.9	288
1	6097	37.1	288
1	6105	37.3	288
1	6113	37.5	288
1	6121	37.7	288
1	6129	37.9	288
1	6137	38.1	288
1	6145	38.3	288
1	6153	38.5	288
1	6161	38.7	288
1	6169	38.9	288
1	6177	39.1	288
1	6185	39.3	288
1	6193	39.5	288
1	6201	39.7	288
1	6209	39.9	288
1	6217	40.1	288
1	6225	40.3	288
1	6233	40.5	288
1	6241	40.7	288
1	6249	40.9	288
1	6257	41.1	288
1	6265	41.3	288
1	6273	41.5	288
1	6281	41.7	288
1	6289	41.9	288
1	6297	42.1	288
1	6305	42.3	288
1	6313	42.5	288
1	6321	42.7	288
1	6329	42.9	288
1	6337	43.1	288
1	6345	43.3	288
1	6353	43.5	288
1	6361	43.7	288
1	6369	43.9	288
1	6377	44.1	288
1	6385	44.3	288
1	6393	44.5	288
1	6401	44.7	288
1	6409	44.9	288
1	6417	45.1	288
1	6425	45.3	288
1	6433	45.5	288
1	6441	45.7	288
1	6449	45.9	288
1	6457	46.1	288
1	6465	46.3	288
1	6473	46.5	288
1	6481	46.7	288
1	6489	46.9	288
1	6497	47.1	288
1	6505	47.3	288
1	6513	47.5	288
1	6521	47.7	288
1	6529	47.9	288
1	6537	48.1	288
1	6545	48.3	288
1	6553	48.5	288
1	6561	48.7	288
1	6569	48.9	288
1	6577	49.1	288
1	6585	49.3	288
1	6593	49.5	288
1	6601	49.7	288
1	6609	49.9	288
1	6617	50.1	288
1	6625	50.3	288
1	6633	50.5	288
1	6641	50.7	288
1	6649	50.9	288
1	6657	51.1	288
1	6665	51.3	288
1	6673	51.5	288
1	6681	51.7	288
1	6689	51.9	288
1	6697	52.1	288
1	6705	52.3	288
1	6713	52.5	288
1	6721	52.7	288
1	6729	52.9	288
1	6737	53.1	288
1	6745	53.3	288
1	6753	53.5	288
1	6761	53.7	288
1	6769	53.9	288
1	6777	54.1	288
1	6785	54.3	288
1	6793	54.5	288
1	6801	54.7	288
1	6809	54.9	288
1	6817	55.1	288
1	6825	55.3	288
1	6833	55.5	288
1	6841	55.7	288
1	6849	55.9	288
1	6857	56.1	288
1	6865	56.3	288
1	6873	56.5	288
1	6881	56.7	288
1	6889	56.9	288
1	6897	57.1	288
1	6905	57.3	288
1	6913	57.5	288
1	6921	57.7	288
1	6929	57.9	288
1	6937	58.1	288
1	6945	58.3	288
1	6953	58.5	288
1	6961	58.7	288
2	0	0	0
2	109	0.1	1
2	110	0.1	2
2	111	0.1	3
2	112	0.1	4
2	113	0.1	5
2	114	0.1	6
2	115	0.1	7
2	116	0.1	8
2	117	0.1	9
2	118	0.1	10
2	119	0.1	11
2	120	0.1	12
2	301	0.6	13
2	302	0.6	14
2	303	0.6	15
2	304	0.6	16
2	305	0.6	17
2	306	0.6	18
2	307	0.6	19
2	308	0.6	20
2	309	0.6	21
2	310	0.6	22
2	311	0.6	23
2	312	0.6	24
2	438	1.1	23
2	501	1.1	24
2	502	1.1	25
2	503	1.1	26
2	504	1.1	27
2	505	1.1	28
2	506	1.1	29
2	507	1.1	30
2	508	1.1	31
2	509	1.1	32
2	510	1.1	33
2	511	1.1	34
2	512	1.1	35
2	590	1.3	34
2	646	1.5	33
2	713	1.6	34
2	714	1.6	35
2	715	1.6	36
2	716	1.6	37
2	717	1.6	38
2	718	1.6	39
2	719	1.6	40
2	720	1.6	41
2	721	1.6	42
2	722	1.6	43
2	723	1.6	44
2	724	1.6	45
2	750	1.7	44
2	806	1.9	43
2	866	2.1	42
2	929	2.1	43
2	930	2.1	44
2	931	2.1	45
2	932	2.1	46
2	933	2.1	47
2	934	2.1	48
2	935	2.1	49
2	936	2.1	50
2	937	2.1	51
2	938	2.1	52
2	939	2.1	53
2	940	2.1	54
2	1018	2.3	53
2	1074	2.5	52
2	1141	2.6	53
2	1142	2.6	54
2	1143	2.6	55
2	1144	2.6	56
2	1145	2.6	57
2	1146	2.6	58
2	1147	2.6	59
2	1148	2.6	60
2	1149	2.6	61
2	1150	2.6	62
2	1151	2.6	63
2	1152	2.6	64
2	1178	2.7	63
2	1234	2.9	62
2	1294	3.1	61
2	1357	3.1	62
2	1358	3.1	63
2	1359	3.1	64
2	1360	3.1	65
2	1361	3.1	66
2	1362	3.1	67
2	1363	3.1	68
2	1364	3.1	69
2	1365	3.1	70
2	1366	3.1	71
2	1367	3.1	72
2	1368	3.1	73
2	1446	3.3	72
2	1502	3.5	71
2	1569	3.6	72
2	1570	3.6	73
2	1571	3.6	74
2	1572	3.6	75
2	1573	3.6	76
2	1574	3.6	77
2	1575	3.6	78
2	1576	3.6	79
2	1577	3.6	80
2	1578	3.6	81
2	1579	3.6	82
2	1580	3.6	83
2	1606	3.7	82
2	1662	3.9	81
2	1722	4.1	80
2	1785	4.1	81
2	1786	4.1	82
2	1787	4.1	83
2	1788	4.1	84
2	1789	4.1	85
2	1790	4.1	86
2	1791	4.1	87
2	1792	4.1	88
2	1793	4.1	89
2	1794	4.1	90
2	1795	4.1	91
2	1796	4.1	92
2	1874	4.3	91
2	1930	4.5	90
2	1997	4.6	91
2	1998	4.6	92
2	1999	4.6	93
2	2000	4.6	94
2	2001	4.6	95
2	2002	4.6	96
2	2003	4.6	97
2	2004	4.6	98
2	2005	4.6	99
2	2006	4.6	100
2	2007	4.6	101
2	2008	4.6	102
2	2034	4.7	101
2	2090	4.9	100
2	2150	5.1	99
2	2213	5.1	100
2	2214	5.1	101
2	2215	5.1	102
2	2216	5.1	103
2	2217	5.1	104
2	2218	5.1	105
2	2219	5.1	106
2	2220	5.1	107
2	2221	5.1	108
2	2222	5.1	109
2	2223	5.1	110
2	2224	5.1	111
2	2302	5.3	110
2	2358	5.5	109
2	2425	5.6	110
2	2426	5.6	111
2	2427	5.6	112
2	2428	5.6	113
2	2429	5.6	114
2	2430	5.6	115
2	2431	5.6	116
2	2432	5.6	117
2	2433	5.6	118
2	2434	5.6	119
2	2435	5.6	120
2	2436	5.6	121
2	2462	5.7	120
2	2518	5.9	119
2	2578	6.1	118
2	2641	6.1	119
2	2642	6.1	120
2	2643	6.1	121
2	2644	6.1	122
2	2645	6.1	123
2	2646	6.1	124
2	2647	6.1	125
2	2648	6.1	126
2	2649	6.1	127
2	2650	6.1	128
2	2651	6.1	129
2	2652	6.1	130
2	2730	6.3	129
2	2786	6.5	128
2	2853	6.6	129
2	2854	6.6	130
2	2855	6.6	131
2	2856	6.6	132
2	2857	6.6	133
2	2858	6.6	134
2	2859	6.6	135
2	2860	6.6	136
2	2861	6.6	137
2	2862	6.6	138
2	2863	6.6	139
2	2864	6.6	140
2	2890	6.7	139
2	2946	6.9	138
2	3006	7.1	137
2	3069	7.1	138
2	3070	7.1	139
2	3071	7.1	140
2	3072	7.1	141
2	3073	7.1	142
2	3074	7.1	143
2	3075	7.1	144
2	3076	7.1	145
2	3077	7.1	146
2	3078	7.1	147
2	3079	7.1	148
2	3080	7.1	149
2	3158	7.3	148
2	3214	7.5	147
2	3281	7.6	148
2	3282	7.6	149
2	3283	7.6	150
2	3284	7.6	151
2	3285	7.6	152
2	3286	7.6	153
2	3287	7.6	154
2	3288	7.6	155
2	3289	7.6	156
2	3290	7.6	157
2	3291	7.6	158
2	3292	7.6	159
2	3318	7.7	158
2	3374	7.9	157
2	3434	8.1	156
2	3497	8.1	157
2	3498	8.1	158
2	3499	8.1	159
2	3500	8.1	160
2	3501	8.1	161
2	3502	8.1	162
2	3503	8.1	163
2	3504	8.1	164
2	3505	8.1	165
2	3506	8.1	166
2	3507	8.1	167
2	3508	8.1	168
2	3586	8.3	167
2	3642	8.5	166
2	3709	8.6	167
2	3710	8.6	168
2	3711	8.6	169
2	3712	8.6	170
2	3713	8.6	171
2	3714	8.6	172
2	3715	8.6	173
2	3716	8.6	174
2	3717	8.6	175
2	3718	8.6	176
2	3719	8.6	177
2	3720	8.6	178
2	3746	8.7	177
2	3802	8.9	176
2	3862	9.1	175
2	3925	9.1	176
2	3926	9.1	177
2	3927	9.1	178
2	3928	9.1	179
2	3929	9.1	180
2	3930	9.1	181
2	3931	9.1	182
2	3932	9.1	183
2	3933	9.1	184
2	3934	9.1	185
2	3935	9.1	186
2	3936	9.1	187
2	4014	9.3	186
2	4070	9.5	185
2	4137	9.6	186
2	4138	9.6	187
2	4139	9.6	188
2	4140	9.6	189
2	4141	9.6	190
2	4142	9.6	191
2	4143	9.6	192
2	4144	9.6	193
2	4145	9.6	194
2	4146	9.6	195
2	4147	9.6	196
2	4148	9.6	197
2	4174	9.7	196
2	4230	9.9	195
2	4290	10.1	194
2	4353	10.1	195
2	4354	10.1	196
2	4355	10.1	197
2	4356	10.1	198
2	4357	10.1	199
2	4358	10.1	200
2	4359	10.1	201
2	4360	10.1	202
2	4361	10.1	203
2	4362	10.1	204
2	4363	10.1	205
2	4364	10.1	206
2	4442	10.3	205
2	4498	10.5	204
2	4565	10.6	205
2	4566	10.6	206
2	4567	10.6	207
2	4568	10.6	208
2	4569	10.6	209
2	4570	10.6	210
2	4571	10.6	211
2	4572	10.6	212
2	4573	10.6	213
2	4574	10.6	214
2	4575	10.6	215
2	4576	10.6	216
2	4602	10.7	215
2	4658	10.9	214
2	4718	11.1	213
2	4781	11.1	214
2	4782	11.1	215
2	4783	11.1	216
2	4784	11.1	217
2	4785	11.1	218
2	4786	11.1	219
2	4787	11.1	220
2	4788	11.1	221
2	4789	11.1	222
2	4790	11.1	223
2	4791	11.1	224
2	4792	11.1	225
2	4870	11.3	224
2	4926	11.5	223
2	4993	11.6	224
2	4994	11.6	225
2	4995	11.6	226
2	4996	11.6	227
2	4997	11.6	228
2	4998	11.6	229
2	4999	11.6	230
2	5000	11.6	231
2	5001	11.6	232
2	5002	11.6	233
2	5003	11.6	234
2	5004	11.6	235
2	5030	11.7	234
2	5086	11.9	233
2	5098	12.1	232
2	5106	12.3	231
2	5114	12.5	230
2	5122	12.7	229
2	5130	12.9	228
2	5138	13.1	227
2	5146	13.3	226
2	5154	13.5	225
2	5162	13.7	224
2	5170	13.9	223
2	5178	14.1	222
2	5186	14.3	221
2	5194	14.5	220
2	5202	14.7	219
2	5210	14.9	218
2	5218	15.1	217
2	5226	15.3	216
2	5234	15.5	215
2	5242	15.7	214
2	5250	15.9	213
2	5258	16.1	212
2	5266	16.3	211
2	5274	16.5	210
2	5282	16.7	209
2	5290	16.9	208
2	5298	17.1	207
2	5306	17.3	206
2	5314	17.5	205
2	5322	17.7	204
2	5330	17.9	203
2	5338	18.1	202
2	5346	18.3	201
2	5354	18.5	200
2	5362	18.7	199
2	5370	18.9	198
2	5378	19.1	197
2	5386	19.3	196
2	5394	19.5	195
2	5402	19.7	194
2	5410	19.9	193
2	5418	20.1	192
2	5426	20.3	191
2	5434	20.5	190
2	5442	20.7	189
2	5450	20.9	188
2	5458	21.1	187
2	5466	21.3	186
2	5474	21.5	185
2	5482	21.7	184
2	5490	21.9	183
2	5498	22.1	182
2	5506	22.3	181
2	5514	22.5	180
2	5522	22.7	179
2	5530	22.9	178
2	5538	23.1	177
2	5546	23.3	176
2	5554	23.5	175
2	5562	23.7	174
2	5570	23.9	173
2	5578	24.1	172
2	5586	24.3	171
2	5594	24.5	170
2	5602	24.7	169
2	5610	24.9	168
2	5618	25.1	167
2	5626	25.3	166
2	5634	25.5	165
2	5642	25.7	164
2	5650	25.9	163
2	5658	26.1	162
2	5666	26.3	161
2	5674	26.5	160
2	5682	26.7	159
2	5690	26.9	158
2	5698	27.1	157
2	5706	27.3	156
2	5714	27.5	155
2	5722	27.7	154
2	5730	27.9	153
2	5738	28.1	152
2	5746	28.3	151
2	5754	28.5	150
2	5762	28.7	149
2	5770	28.9	148
2	5778	29.1	147
2	5786	29.3	146
2	5794	29.5	145
2	5802	29.7	144
2	5810	29.9	143
2	5818	30.1	142
2	5826	30.3	141
2	5834	30.5	140
2	5842	30.7	139
2	5850	30.9	138
2	5858	31.1	137
2	5866	31.3	136
2	5874	31.5	135
2	5882	31.7	134
2	5890	31.9	133
2	5898	32.1	132
2	5906	32.3	131
2	5914	32.5	130
2	5922	32.7	129
2	5930	32.9	128
2	5938	33.1	127
2	5946	33.3	126
2	5954	33.5	125
2	5962	33.7	124
2	5970	33.9	123
2	5978	34.1	122
2	5986	34.3	121
2	5994	34.5	120
2	6002	34.7	119
2	6010	34.9	118
2	6018	35.1	117
2	6026	35.3	116
2	6034	35.5	115
2	6042	35.7	114
2	6050	35.9	113
2	6058	36.1	112
2	6066	36.3	111
2	6074	36.5	110
2	6082	36.7	109
2	6090	36.9	108
2	6098	37.1	107
2	6106	37.3	106
2	6114	37.5	105
2	6122	37.7	104
2	6130	37.9	103
2	6138	38.1	102
2	6146	38.3	101
2	6154	38.5	100
2	6162	38.7	99
2	6170	38.9	98
2	6178	39.1	97
2	6186	39.3	96
2	6194	39.5	95
2	6202	39.7	94
2	6210	39.9	93
2	6218	40.1	92
2	6226	40.3	91
2	6234	40.5	90
2	6242	40.7	89
2	6250	40.9	88
2	6258	41.1	87
2	6266	41.3	86
2	6274	41.5	85
2	6282	41.7	84
2	6290	41.9	83
2	6298	42.1	82
2	6306	42.3	81
2	6314	42.5	80
2	6322	42.7	79
2	6330	42.9	78
2	6338	43.1	77
2	6346	43.3	76
2	6354	43.5	75
2	6362	43.7	74
2	6370	43.9	73
2	6378	44.1	72
2	6386	44.3	71
2	6394	44.5	70
2	6402	44.7	69
2	6410	44.9	68
2	6418	45.1	67
2	6426	45.3	66
2	6434	45.5	65
2	6442	45.7	64
2	6450	45.9	63
2	6458	46.1	62
2	6466	46.3	61
2	6474	46.5	60
2	6482	46.7	59
2	6490	46.9	58
2	6498	47.1	57
2	6506	47.3	56
2	6514	47.5	55
2	6522	47.7	54
2	6530	47.9	53
2	6538	48.1	52
2	6546	48.3	51
2	6554	48.5	50
2	6562	48.7	49
2	6570	48.9	48
2	6578	49.1	47
2	6586	49.3	46
2	6594	49.5	45
2	6602	49.7	44
2	6610	49.9	43
2	6618	50.1	42
2	6626	50.3	41
2	6634	50.5	40
2	6642	50.7	39
2	6650	50.9	38
2	6658	51.1	37
2	6666	51.3	36
2	6674	51.5	35
2	6682	51.7	34
2	6690	51.9	33
2	6698	52.1	32
2	6706	52.3	31
2	6714	52.5	30
2	6722	52.7	29
2	6730	52.9	28
2	6738	53.1	27
2	6746	53.3	26
2	6754	53.5	25
2	6762	53.7	24
2	6770	53.9	23
2	6778	54.1	22
2	6786	54.3	21
2	6794	54.5	20
2	6802	54.7	19
2	6810	54.9	18
2	6818	55.1	17
2	6826	55.3	16
2	6834	55.5	15
2	6842	55.7	14
2	6850	55.9	13
2	6858	56.1	12
2	6866	56.3	11
2	6874	56.5	10
2	6882	56.7	9
2	6890	56.9	8
2	6898	57.1	7
2	6906	57.3	6
2	6914	57.5	5
2	6922	57.7	4
2	6930	57.9	3
2	6938	58.1	2
2	6946	58.3	1
2	6954	58.5	0
3	0	0	0
3	438	1.1	24
3	590	1.3	36
3	646	1.5	36
3	750	1.7	48
3	806	1.9	48
3	866	2.1	48
3	1018	2.3	60
3	1074	2.5	60
3	1178	2.7	72
3	1234	2.9	72
3	1294	3.1	72
3	1446	3.3	84
3	1502	3.5	84
3	1606	3.7	96
3	1662	3.9	96
3	1722	4.1	96
3	1874	4.3	108
3	1930	4.5	108
3	2034	4.7	120
3	2090	4.9	120
3	2150	5.1	120
3	2302	5.3	132
3	2358	5.5	132
3	2462	5.7	144
3	2518	5.9	144
3	2578	6.1	144
3	2730	6.3	156
3	2786	6.5	156
3	2890	6.7	168
3	2946	6.9	168
3	3006	7.1	168
3	3158	7.3	180
3	3214	7.5	180
3	3318	7.7	192
3	3374	7.9	192
3	3434	8.1	192
3	3586	8.3	204
3	3642	8.5	204
3	3746	8.7	216
3	3802	8.9	216
3	3862	9.1	216
3	4014	9.3	228
3	4070	9.5	228
3	4174	9.7	240
3	4230	9.9	240
3	4290	10.1	240
3	4442	10.3	252
3	4498	10.5	252
3	4602	10.7	264
3	4658	10.9	264
3	4718	11.1	264
3	4870	11.3	276
3	4926	11.5	276
3	5030	11.7	288
3	5086	11.9	288
3	5098	12.1	288
3	5106	12.3	288
3	5114	12.5	288
3	5122	12.7	288
3	5130	12.9	288
3	5138	13.1	288
3	5146	13.3	288
3	5154	13.5	288
3	5162	13.7	288
3	5170	13.9	288
3	5178	14.1	288
3	5186	14.3	288
3	5194	14.5	288
3	5202	14.7	288
3	5210	14.9	288
3	5218	15.1	288
3	5226	15.3	288
3	5234	15.5	288
3	5242	15.7	288
3	5250	15.9	288
3	5258	16.1	288
3	5266	16.3	288
3	5274	16.5	288
3	5282	16.7	288
3	5290	16.9	288
3	5298	17.1	288
3	5306	17.3	288
3	5314	17.5	288
3	5322	17.7	288
3	5330	17.9	288
3	5338	18.1	288
3	5346	18.3	288
3	5354	18.5	288
3	5362	18.7	288
3	5370	18.9	288
3	5378	19.1	288
3	5386	19.3	288
3	5394	19.5	288
3	5402	19.7	288
3	5410	19.9	288
3	5418	20.1	288
3	5426	20.3	288
3	5434	20.5	288
3	5442	20.7	288
3	5450	20.9	288
3	5458	21.1	288
3	5466	21.3	288
3	5474	21.5	288
3	5482	21.7	288
3	5490	21.9	288
3	5498	22.1	288
3	5506	22.3	288
3	5514	22.5	288
3	5522	22.7	288
3	5530	22.9	288
3	5538	23.1	288
3	5546	23.3	288
3	5554	23.5	288
3	5562	23.7	288
3	5570	23.9	288
3	5578	24.1	288
3	5586	24.3	288
3	5594	24.5	288
3	5602	24.7	288
3	5610	24.9	288
3	5618	25.1	288
3	5626	25.3	288
3	5634	25.5	288
3	5642	25.7	288
3	5650	25.9	288
3	5658	26.1	288
3	5666	26.3	288
3	5674	26.5	288
3	5682	26.7	288
3	5690	26.9	288
3	5698	27.1	288
3	5706	27.3	288
3	5714	27.5	288
3	5722	27.7	288
3	5730	27.9	288
3	5738	28.1	288
3	5746	28.3	288
3	5754	28.5	288
3	5762	28.7	288
3	5770	28.9	288
3	5778	29.1	288
3	5786	29.3	288
3	5794	29.5	288
3	5802	29.7	288
3	5810	29.9	288
3	5818	30.1	288
3	5826	30.3	288
3	5834	30.5	288
3	5842	30.7	288
3	5850	30.9	288
3	5858	31.1	288
3	5866	31.3	288
3	5874	31.5	288
3	5882	31.7	288
3	5890	31.9	288
3	5898	32.1	288
3	5906	32.3	288
3	5914	32.5	288
3	5922	32.7	288
3	5930	32.9	288
3	5938	33.1	288
3	5946	33.3	288
3	5954	33.5	288
3	5962	33.7	288
3	5970	33.9	288
3	5978	34.1	288
3	5986	34.3	288
3	5994	34.5	288
3	6002	34.7	288
3	6010	34.9	288
3	6018	35.1	288
3	6026	35.3	288
3	6034	35.5	288
3	6042	35.7	288
3	6050	35.9	288
3	6058	36.1	288
3	6066	36.3	288
3	6074	36.5	288
3	6082	36.7	288
3	6090	36.9	288
3	6098	37.1	288
3	6106	37.3	288
3	6114	37.5	288
3	6122	37.7	288
3	6130	37.9	288
3	6138	38.1	288
3	6146	38.3	288
3	6154	38.5	288
3	6162	38.7	288
3	6170	38.9	288
3	6178	39.1	288
3	6186	39.3	288
3	6194	39.5	288
3	6202	39.7	288
3	6210	39.9	288
3	6218	40.1	288
3	6226	40.3	288
3	6234	40.5	288
3	6242	40.7	288
3	6250	40.9	288
3	6258	41.1	288
3	6266	41.3	288
3	6274	41.5	288
3	6282	41.7	288
3	6290	41.9	288
3	6298	42.1	288
3	6306	42.3	288
3	6314	42.5	288
3	6322	42.7	288
3	6330	42.9	288
3	6338	43.1	288
3	6346	43.3	288
3	6354	43.5	288
3	6362	43.7	288
3	6370	43.9	288
3	6378	44.1	288
3	6386	44.3	288
3	6394	44.5	288
3	6402	44.7	288
3	6410	44.9	288
3	6418	45.1	288
3	6426	45.3	288
3	6434	45.5	288
3	6442	45.7	288
3	6450	45.9	288
3	6458	46.1	288
3	6466	46.3	288
3	6474	46.5	288
3	6482	46.7	288
3	6490	46.9	288
3	6498	47.1	288
3	6506	47.3	288
3	6514	47.5	288
3	6522	47.7	288
3	6530	47.9	288
3	6538	48.1	288
3	6546	48.3	288
3	6554	48.5	288
3	6562	48.7	288
3	6570	48.9	288
3	6578	49.1	288
3	6586	49.3	288
3	6594	49.5	288
3	6602	49.7	288
3	6610	49.9	288
3	6618	50.1	288
3	6626	50.3	288
3	6634	50.5	288
3	6642	50.7	288
3	6650	50.9	288
3	6658	51.1	288
3	6666	51.3	288
3	6674	51.5	288
3	6682	51.7	288
3	6690	51.9	288
3	6698	52.1	288
3	6706	52.3	288
3	6714	52.5	288
3	6722	52.7	288
3	6730	52.9	288
3	6738	53.1	288
3	6746	53.3	288
3	6754	53.5	288
3	6762	53.7	288
3	6770	53.9	288
3	6778	54.1	288
3	6786	54.3	288
3	6794	54.5	288
3	6802	54.7	288
3	6810	54.9	288
3	6818	55.1	288
3	6826	55.3	288
3	6834	55.5	288
3	6842	55.7	288
3	6850	55.9	288
3	6858	56.1	288
3	6866	56.3	288
3	6874	56.5	288
3	6882	56.7	288
3	6890	56.9	288
3	6898	57.1	288
3	6906	57.3	288
3	6914	57.5	288
3	6922	57.7	288
3	6930	57.9	288
3	6938	58.1	288
3	6946	58.3	288
3	6954	58.5	288
3	6962	58.7	288
4	0	0	0
4	121	0.1	1
4	122	0.1	2
4	123	0.1	3
4	124	0.1	4
4	125	0.1	5
4	126	0.1	6
4	127	0.1	7
4	128	0.1	8
4	129	0.1	9
4	130	0.1	10
4	131	0.1	11
4	132	0.1	12
4	313	0.6	13
4	314	0.6	14
4	315	0.6	15
4	316	0.6	16
4	317	0.6	17
4	318	0.6	18
4	319	0.6	19
4	320	0.6	20
4	321	0.6	21
4	322	0.6	22
4	323	0.6	23
4	324	0.6	24
4	439	1.1	23
4	513	1.1	24
4	514	1.1	25
4	515	1.1	26
4	516	1.1	27
4	517	1.1	28
4	518	1.1	29
4	519	1.1	30
4	520	1.1	31
4	521	1.1	32
4	522	1.1	33
4	523	1.1	34
4	524	1.1	35
4	591	1.3	34
4	647	1.5	33
4	725	1.6	34
4	726	1.6	35
4	727	1.6	36
4	728	1.6	37
4	729	1.6	38
4	730	1.6	39
4	731	1.6	40
4	732	1.6	41
4	733	1.6	42
4	734	1.6	43
4	735	1.6	44
4	736	1.6	45
4	751	1.7	44
4	807	1.9	43
4	867	2.1	42
4	941	2.1	43
4	942	2.1	44
4	943	2.1	45
4	944	2.1	46
4	945	2.1	47
4	946	2.1	48
4	947	2.1	49
4	948	2.1	50
4	949	2.1	51
4	950	2.1	52
4	951	2.1	53
4	952	2.1	54
4	1019	2.3	53
4	1075	2.5	52
4	1153	2.6	53
4	1154	2.6	54
4	1155	2.6	55
4	1156	2.6	56
4	1157	2.6	57
4	1158	2.6	58
4	1159	2.6	59
4	1160	2.6	60
4	1161	2.6	61
4	1162	2.6	62
4	1163	2.6	63
4	1164	2.6	64
4	1179	2.7	63
4	1235	2.9	62