version 2
run MicrogridNetwork-0-20180308-11:51:15-1116
attr configname MicrogridNetwork
attr datetime 20180308-11:51:15
attr experiment MicrogridNetwork
attr inifile omnetpp.ini
attr iterationvars ""
attr iterationvarsf ""
attr measurement ""
attr network MicrogridNetwork
attr processid 1116
attr repetition 0
attr replication #0
attr resultdir results
attr runnumber 0
attr seedset 0

vector 0 MicrogridNetwork.pico[0].queue queueLength:vector ETV
attr interpolationmode sample-hold
attr title "queue length, vector"
vector 1 MicrogridNetwork.pico[1].queue queueLength:vector ETV
attr interpolationmode sample-hold
attr title "queue length, vector"
vector 2 MicrogridNetwork.pico[2].queue queueLength:vector ETV
attr interpolationmode sample-hold
attr title "queue length, vector"
vector 3 MicrogridNetwork.pico[3].queue queueLength:vector ETV
attr interpolationmode sample-hold
attr title "queue length, vector"
vector 4 MicrogridNetwork.pico[0].queue queueingTime:vector ETV
attr interpolationmode none
attr title "queueing time at dequeue, vector"
attr unit s
vector 5 MicrogridNetwork.pico[1].queue queueingTime:vector ETV
attr interpolationmode none
attr title "queueing time at dequeue, vector"
attr unit s
vector 6 MicrogridNetwork.pico[2].queue queueingTime:vector ETV
attr interpolationmode none
attr title "queueing time at dequeue, vector"
attr unit s
vector 7 MicrogridNetwork.pico[3].queue queueingTime:vector ETV
attr interpolationmode none
attr title "queueing time at dequeue, vector"
attr unit s
0	0	0	0
0	25	0.1	1
0	26	0.1	2
0	27	0.1	3
0	61	0.6	2
0	77	0.6	3
0	78	0.6	4
0	79	0.6	5
0	93	0.8	4
0	113	1	3
0	133	1.1	4
0	134	1.1	5
0	135	1.1	6
0	145	1.2	5
0	153	1.4	4
0	173	1.6	3
0	189	1.6	4
0	190	1.6	5
0	191	1.6	6
0	205	1.8	5
0	225	2	4
0	245	2.1	5
0	246	2.1	6
0	247	2.1	7
0	257	2.2	6
0	265	2.4	5
0	285	2.6	4
0	301	2.6	5
0	302	2.6	6
0	303	2.6	7
0	317	2.8	6
0	337	3	5
0	361	3.1	6
0	362	3.1	7
0	363	3.1	8
0	373	3.2	7
0	393	3.4	6
0	413	3.6	5
0	429	3.6	6
0	430	3.6	7
0	431	3.6	8
0	445	3.8	7
0	465	4	6
0	485	4.1	7
0	486	4.1	8
0	487	4.1	9
0	497	4.2	8
0	505	4.4	7
0	525	4.6	6
0	541	4.6	7
0	542	4.6	8
0	543	4.6	9
0	557	4.8	8
0	577	5	7
0	597	5.1	8
0	598	5.1	9
0	599	5.1	10
0	609	5.2	9
0	617	5.4	8
0	637	5.6	7
0	653	5.6	8
0	654	5.6	9
0	655	5.6	10
0	669	5.8	9
0	689	6	8
0	713	6.1	9
0	714	6.1	10
0	715	6.1	11
0	725	6.2	10
0	745	6.4	9
0	765	6.6	8
0	781	6.6	9
0	782	6.6	10
0	783	6.6	11
0	797	6.8	10
0	817	7	9
0	837	7.1	10
0	838	7.1	11
0	839	7.1	12
0	849	7.2	11
0	857	7.4	10
0	877	7.6	9
0	893	7.6	10
0	894	7.6	11
0	895	7.6	12
0	909	7.8	11
0	929	8	10
0	949	8.1	11
0	950	8.1	12
0	951	8.1	13
0	961	8.2	12
0	969	8.4	11
0	989	8.6	10
0	1005	8.6	11
0	1006	8.6	12
0	1007	8.6	13
0	1021	8.8	12
0	1041	9	11
0	1065	9.1	12
0	1066	9.1	13
0	1067	9.1	14
0	1077	9.2	13
0	1097	9.4	12
0	1117	9.6	11
0	1133	9.6	12
0	1134	9.6	13
0	1135	9.6	14
0	1149	9.8	13
0	1169	10	12
0	1189	10.1	13
0	1190	10.1	14
0	1191	10.1	15
0	1201	10.2	14
0	1209	10.4	13
0	1229	10.6	12
0	1245	10.6	13
0	1246	10.6	14
0	1247	10.6	15
0	1261	10.8	14
0	1281	11	13
0	1301	11.1	14
0	1302	11.1	15
0	1303	11.1	16
0	1313	11.2	15
0	1321	11.4	14
0	1341	11.6	13
0	1357	11.6	14
0	1358	11.6	15
0	1359	11.6	16
0	1373	11.8	15
0	1381	12	14
0	1393	12.2	13
0	1401	12.4	12
0	1409	12.6	11
0	1417	12.8	10
0	1425	13	9
0	1433	13.2	8
0	1441	13.4	7
0	1449	13.6	6
0	1457	13.8	5
0	1465	14	4
0	1473	14.2	3
0	1481	14.4	2
0	1489	14.6	1
0	1497	14.8	0
1	0	0	0
1	28	0.1	1
1	29	0.1	2
1	30	0.1	3
1	62	0.6	2
1	80	0.6	3
1	81	0.6	4
1	82	0.6	5
1	94	0.8	4
1	114	1	3
1	136	1.1	4
1	137	1.1	5
1	138	1.1	6
1	146	1.2	5
1	154	1.4	4
1	174	1.6	3
1	192	1.6	4
1	193	1.6	5
1	194	1.6	6
1	206	1.8	5
1	226	2	4
1	248	2.1	5
1	249	2.1	6
1	250	2.1	7
1	258	2.2	6
1	266	2.4	5
1	286	2.6	4
1	304	2.6	5
1	305	2.6	6
1	306	2.6	7
1	318	2.8	6
1	338	3	5
1	364	3.1	6
1	365	3.1	7
1	366	3.1	8
1	374	3.2	7
1	394	3.4	6
1	414	3.6	5
1	432	3.6	6
1	433	3.6	7
1	434	3.6	8
1	446	3.8	7
1	466	4	6
1	488	4.1	7
1	489	4.1	8
1	490	4.1	9
1	498	4.2	8
1	506	4.4	7
1	526	4.6	6
1	544	4.6	7
1	545	4.6	8
1	546	4.6	9
1	558	4.8	8
1	578	5	7
1	600	5.1	8
1	601	5.1	9
1	602	5.1	10
1	610	5.2	9
1	618	5.4	8
1	638	5.6	7
1	656	5.6	8
1	657	5.6	9
1	658	5.6	10
1	670	5.8	9
1	690	6	8
1	716	6.1	9
1	717	6.1	10
1	718	6.1	11
1	726	6.2	10
1	746	6.4	9
1	766	6.6	8
1	784	6.6	9
1	785	6.6	10
1	786	6.6	11
1	798	6.8	10
1	818	7	9
1	840	7.1	10
1	841	7.1	11
1	842	7.1	12
1	850	7.2	11
1	858	7.4	10
1	878	7.6	9
1	896	7.6	10
1	897	7.6	11
1	898	7.6	12
1	910	7.8	11
1	930	8	10
1	952	8.1	11
1	953	8.1	12
1	954	8.1	13
1	962	8.2	12
1	970	8.4	11
1	990	8.6	10
1	1008	8.6	11
1	1009	8.6	12
1	1010	8.6	13
1	1022	8.8	12
1	1042	9	11
1	1068	9.1	12
1	1069	9.1	13
1	1070	9.1	14
1	1078	9.2	13
1	1098	9.4	12
1	1118	9.6	11
1	1136	9.6	12
1	1137	9.6	13
1	1138	9.6	14
1	1150	9.8	13
1	1170	10	12
1	1192	10.1	13
1	1193	10.1	14
1	1194	10.1	15
1	1202	10.2	14
1	1210	10.4	13
1	1230	10.6	12
1	1248	10.6	13
1	1249	10.6	14
1	1250	10.6	15
1	1262	10.8	14
1	1282	11	13
1	1304	11.1	14
1	1305	11.1	15
1	1306	11.1	16
1	1314	11.2	15
1	1322	11.4	14
1	1342	11.6	13
1	1360	11.6	14
1	1361	11.6	15
1	1362	11.6	16
1	1374	11.8	15
1	1382	12	14
1	1394	12.2	13
1	1402	12.4	12
1	1410	12.6	11
1	1418	12.8	10
1	1426	13	9
1	1434	13.2	8
1	1442	13.4	7
1	1450	13.6	6
1	1458	13.8	5
1	1466	14	4
1	1474	14.2	3
1	1482	14.4	2
1	1490	14.6	1
1	1498	14.8	0
2	0	0	0
2	31	0.1	1
2	32	0.1	2
2	33	0.1	3
2	63	0.6	2
2	83	0.6	3
2	84	0.6	4
2	85	0.6	5
2	95	0.8	4
2	115	1	3
2	139	1.1	4
2	140	1.1	5
2	141	1.1	6
2	147	1.2	5
2	155	1.4	4
2	175	1.6	3
2	195	1.6	4
2	196	1.6	5
2	197	1.6	6
2	207	1.8	5
2	227	2	4
2	251	2.1	5
2	252	2.1	6
2	253	2.1	7
2	259	2.2	6
2	267	2.4	5
2	287	2.6	4
2	307	2.6	5
2	308	2.6	6
2	309	2.6	7
2	319	2.8	6
2	339	3	5
2	367	3.1	6
2	368	3.1	7
2	369	3.1	8
2	375	3.2	7
2	395	3.4	6
2	415	3.6	5
2	435	3.6	6
2	436	3.6	7
2	437	3.6	8
2	447	3.8	7
2	467	4	6
2	491	4.1	7
2	492	4.1	8
2	493	4.1	9
2	499	4.2	8
2	507	4.4	7
2	527	4.6	6
2	547	4.6	7
2	548	4.6	8
2	549	4.6	9
2	559	4.8	8
2	579	5	7
2	603	5.1	8
2	604	5.1	9
2	605	5.1	10
2	611	5.2	9
2	619	5.4	8
2	639	5.6	7
2	659	5.6	8
2	660	5.6	9
2	661	5.6	10
2	671	5.8	9
2	691	6	8
2	719	6.1	9
2	720	6.1	10
2	721	6.1	11
2	727	6.2	10
2	747	6.4	9
2	767	6.6	8
2	787	6.6	9
2	788	6.6	10
2	789	6.6	11
2	799	6.8	10
2	819	7	9
2	843	7.1	10
2	844	7.1	11
2	845	7.1	12
2	851	7.2	11
2	859	7.4	10
2	879	7.6	9
2	899	7.6	10
2	900	7.6	11
2	901	7.6	12
2	911	7.8	11
2	931	8	10
2	955	8.1	11
2	956	8.1	12
2	957	8.1	13
2	963	8.2	12
2	971	8.4	11
2	991	8.6	10
2	1011	8.6	11
2	1012	8.6	12
2	1013	8.6	13
2	1023	8.8	12
2	1043	9	11
2	1071	9.1	12
2	1072	9.1	13
2	1073	9.1	14
2	1079	9.2	13
2	1099	9.4	12
2	1119	9.6	11
2	1139	9.6	12
2	1140	9.6	13
2	1141	9.6	14
2	1151	9.8	13
2	1171	10	12
2	1195	10.1	13
2	1196	10.1	14
2	1197	10.1	15
2	1203	10.2	14
2	1211	10.4	13
2	1231	10.6	12
2	1251	10.6	13
2	1252	10.6	14
2	1253	10.6	15
2	1263	10.8	14
2	1283	11	13
2	1307	11.1	14
2	1308	11.1	15
2	1309	11.1	16
2	1315	11.2	15
2	1323	11.4	14
2	1343	11.6	13
2	1363	11.6	14
2	1364	11.6	15
2	1365	11.6	16
2	1375	11.8	15
2	1383	12	14
2	1395	12.2	13
2	1403	12.4	12
2	1411	12.6	11
2	1419	12.8	10
2	1427	13	9
2	1435	13.2	8
2	1443	13.4	7
2	1451	13.6	6
2	1459	13.8	5
2	1467	14	4
2	1475	14.2	3
2	1483	14.4	2
2	1491	14.6	1
2	1499	14.8	0
3	0	0	0
3	34	0.1	1
3	35	0.1	2
3	36	0.1	3
3	64	0.6	2
3	86	0.6	3
3	87	0.6	4
3	88	0.6	5
3	96	0.8	4
3	116	1	3
3	142	1.1	4
3	143	1.1	5
3	144	1.1	6
3	148	1.2	5
3	156	1.4	4
3	176	1.6	3
3	198	1.6	4
3	199	1.6	5
3	200	1.6	6
3	208	1.8	5
3	228	2	4
3	254	2.1	5
3	255	2.1	6
3	256	2.1	7
3	260	2.2	6
3	268	2.4	5
3	288	2.6	4
3	310	2.6	5
3	311	2.6	6
3	312	2.6	7
3	320	2.8	6
3	340	3	5
3	370	3.1	6
3	371	3.1	7
3	372	3.1	8
3	376	3.2	7
3	396	3.4	6
3	416	3.6	5
3	438	3.6	6
3	439	3.6	7
3	440	3.6	8
3	448	3.8	7
3	468	4	6
3	494	4.1	7
3	495	4.1	8
3	496	4.1	9
3	500	4.2	8
3	508	4.4	7
3	528	4.6	6
3	550	4.6	7
3	551	4.6	8
3	552	4.6	9
3	560	4.8	8
3	580	5	7
3	606	5.1	8
3	607	5.1	9
3	608	5.1	10
3	612	5.2	9
3	620	5.4	8
3	640	5.6	7
3	662	5.6	8
3	663	5.6	9
3	664	5.6	10
3	672	5.8	9
3	692	6	8
3	722	6.1	9
3	723	6.1	10
3	724	6.1	11
3	728	6.2	10
3	748	6.4	9
3	768	6.6	8
3	790	6.6	9
3	791	6.6	10
3	792	6.6	11
3	800	6.8	10
3	820	7	9
3	846	7.1	10
3	847	7.1	11
3	848	7.1	12
3	852	7.2	11
3	860	7.4	10
3	880	7.6	9
3	902	7.6	10
3	903	7.6	11
3	904	7.6	12
3	912	7.8	11
3	932	8	10
3	958	8.1	11
3	959	8.1	12
3	960	8.1	13
3	964	8.2	12
3	972	8.4	11
3	992	8.6	10
3	1014	8.6	11
3	1015	8.6	12
3	1016	8.6	13
3	1024	8.8	12
3	1044	9	11
3	1074	9.1	12
3	1075	9.1	13
3	1076	9.1	14
3	1080	9.2	13
3	1100	9.4	12
3	1120	9.6	11
3	1142	9.6	12
3	1143	9.6	13
3	1144	9.6	14
3	1152	9.8	13
3	1172	10	12
3	1198	10.1	13
3	1199	10.1	14
3	1200	10.1	15
3	1204	10.2	14
3	1212	10.4	13
3	1232	10.6	12
3	1254	10.6	13
3	1255	10.6	14
3	1256	10.6	15
3	1264	10.8	14
3	1284	11	13
3	1310	11.1	14
3	1311	11.1	15
3	1312	11.1	16
3	1316	11.2	15
3	1324	11.4	14
3	1344	11.6	13
3	1366	11.6	14
3	1367	11.6	15
3	1368	11.6	16
3	1376	11.8	15
3	1384	12	14
3	1396	12.2	13
3	1404	12.4	12
3	1412	12.6	11
3	1420	12.8	10
3	1428	13	9
3	1436	13.2	8
3	1444	13.4	7
3	1452	13.6	6
3	1460	13.8	5
3	1468	14	4
3	1476	14.2	3
3	1484	14.4	2
3	1492	14.6	1
3	1500	14.8	0
4	61	0.6	0.6
4	93	0.8	0.8
4	113	1	1
4	145	1.2	1.2
4	153	1.4	1.4
4	173	1.6	1.6
4	205	1.8	1.8
4	225	2	2
4	257	2.2	2.2
4	265	2.4	2.4
4	285	2.6	2.6
4	317	2.8	2.8
4	337	3	3
4	373	3.2	3.2
4	393	3.4	3.4
4	413	3.6	3.6
4	445	3.8	3.8
4	465	4	4
4	497	4.2	4.2
4	505	4.4	4.4
4	525	4.6	4.6
4	557	4.8	4.8
4	577	5	5
4	609	5.2	5.2
4	617	5.4	5.4
4	637	5.6	5.6
4	669	5.8	5.8
4	689	6	6
4	725	6.2	6.2
4	745	6.4	6.4
4	765	6.6	6.6
4	797	6.8	6.8
4	817	7	7
4	849	7.2	7.2
4	857	7.4	7.4
4	877	7.6	7.6
4	909	7.8	7.8
4	929	8	8
4	961	8.2	8.2
4	969	8.4	8.4
4	989	8.6	8.6
4	1021	8.8	8.8
4	1041	9	9
4	1077	9.2	9.2
4	1097	9.4	9.4
4	1117	9.6	9.6
4	1149	9.8	9.8
4	1169	10	10
4	1201	10.2	10.2
4	1209	10.4	10.4
4	1229	10.6	10.6
4	1261	10.8	10.8
4	1281	11	11
4	1313	11.2	11.2
4	1321	11.4	11.4
4	1341	11.6	11.6
4	1373	11.8	11.8
4	1381	12	12
4	1393	12.2	12.2
4	1401	12.4	12.4
4	1409	12.6	12.6
4	1417	12.8	12.8
4	1425	13	13
4	1433	13.2	13.2
4	1441	13.4	13.4
4	1449	13.6	13.6
4	1457	13.8	13.8
4	1465	14	14
4	1473	14.2	14.2
4	1481	14.4	14.4
4	1489	14.6	14.6
4	1497	14.8	14.8
5	62	0.6	0.6
5	94	0.8	0.8
5	114	1	1
5	146	1.2	1.2
5	154	1.4	1.4
5	174	1.6	1.6
5	206	1.8	1.8
5	226	2	2
5	258	2.2	2.2
5	266	2.4	2.4
5	286	2.6	2.6
5	318	2.8	2.8
5	338	3	3
5	374	3.2	3.2
5	394	3.4	3.4
5	414	3.6	3.6
5	446	3.8	3.8
5	466	4	4
5	498	4.2	4.2
5	506	4.4	4.4
5	526	4.6	4.6
5	558	4.8	4.8
5	578	5	5
5	610	5.2	5.2
5	618	5.4	5.4
5	638	5.6	5.6
5	670	5.8	5.8
5	690	6	6
5	726	6.2	6.2
5	746	6.4	6.4
5	766	6.6	6.6
5	798	6.8	6.8
5	818	7	7
5	850	7.2	7.2
5	858	7.4	7.4
5	878	7.6	7.6
5	910	7.8	7.8
5	930	8	8
5	962	8.2	8.2
5	970	8.4	8.4
5	990	8.6	8.6
5	1022	8.8	8.8
5	1042	9	9
5	1078	9.2	9.2
5	1098	9.4	9.4
5	1118	9.6	9.6
5	1150	9.8	9.8
5	1170	10	10
5	1202	10.2	10.2
5	1210	10.4	10.4
5	1230	10.6	10.6
5	1262	10.8	10.8
5	1282	11	11
5	1314	11.2	11.2
5	1322	11.4	11.4
5	1342	11.6	11.6
5	1374	11.8	11.8
5	1382	12	12
5	1394	12.2	12.2
5	1402	12.4	12.4
5	1410	12.6	12.6
5	1418	12.8	12.8
5	1426	13	13
5	1434	13.2	13.2
5	1442	13.4	13.4
5	1450	13.6	13.6
5	1458	13.8	13.8
5	1466	14	14
5	1474	14.2	14.2
5	1482	14.4	14.4
5	1490	14.6	14.6
5	1498	14.8	14.8
6	63	0.6	0.6
6	95	0.8	0.8
6	115	1	1
6	147	1.2	1.2
6	155	1.4	1.4
6	175	1.6	1.6
6	207	1.8	1.8
6	227	2	2
6	259	2.2	2.2
6	267	2.4	2.4
6	287	2.6	2.6
6	319	2.8	2.8
6	339	3	3
6	375	3.2	3.2
6	395	3.4	3.4
6	415	3.6	3.6
6	447	3.8	3.8
6	467	4	4
6	499	4.2	4.2
6	507	4.4	4.4
6	527	4.6	4.6
6	559	4.8	4.8
6	579	5	5
6	611	5.2	5.2
6	619	5.4	5.4
6	639	5.6	5.6
6	671	5.8	5.8
6	691	6	6
6	727	6.2	6.2
6	747	6.4	6.4
6	767	6.6	6.6
6	799	6.8	6.8
6	819	7	7
6	851	7.2	7.2
6	859	7.4	7.4
6	879	7.6	7.6
6	911	7.8	7.8
6	931	8	8
6	963	8.2	8.2
6	971	8.4	8.4
6	991	8.6	8.6
6	1023	8.8	8.8
6	1043	9	9
6	1079	9.2	9.2
6	1099	9.4	9.4
6	1119	9.6	9.6
6	1151	9.8	9.8
6	1171	10	10
6	1203	10.2	10.2
6	1211	10.4	10.4
6	1231	10.6	10.6
6	1263	10.8	10.8
6	1283	11	11
6	1315	11.2	11.2
6	1323	11.4	11.4
6	1343	11.6	11.6
6	1375	11.8	11.8
6	1383	12	12
6	1395	12.2	12.2
6	1403	12.4	12.4
6	1411	12.6	12.6
6	1419	12.8	12.8
6	1427	13	13
6	1435	13.2	13.2
6	1443	13.4	13.4
6	1451	13.6	13.6
6	1459	13.8	13.8
6	1467	14	14
6	1475	14.2	14.2
6	1483	14.4	14.4
6	1491	14.6	14.6
6	1499	14.8	14.8
7	64	0.6	0.6
7	96	0.8	0.8
7	116	1	1
7	148	1.2	1.2
7	156	1.4	1.4
7	176	1.6	1.6
7	208	1.8	1.8
7	228	2	2
7	260	2.2	2.2
7	268	2.4	2.4
7	288	2.6	2.6
7	320	2.8	2.8
7	340	3	3
7	376	3.2	3.2
7	396	3.4	3.4
7	416	3.6	3.6
7	448	3.8	3.8
7	468	4	4
7	500	4.2	4.2
7	508	4.4	4.4
7	528	4.6	4.6
7	560	4.8	4.8
7	580	5	5
7	612	5.2	5.2
7	620	5.4	5.4
7	640	5.6	5.6
7	672	5.8	5.8
7	692	6	6
7	728	6.2	6.2
7	748	6.4	6.4
7	768	6.6	6.6
7	800	6.8	6.8
7	820	7	7
7	852	7.2	7.2
7	860	7.4	7.4
7	880	7.6	7.6
7	912	7.8	7.8
7	932	8	8
7	964	8.2	8.2
7	972	8.4	8.4
7	992	8.6	8.6
7	1024	8.8	8.8
7	1044	9	9
7	1080	9.2	9.2
7	1100	9.4	9.4
7	1120	9.6	9.6
7	1152	9.8	9.8
7	1172	10	10
7	1204	10.2	10.2
7	1212	10.4	10.4
7	1232	10.6	10.6
7	1264	10.8	10.8
7	1284	11	11
7	1316	11.2	11.2
7	1324	11.4	11.4
7	1344	11.6	11.6
7	1376	11.8	11.8
7	1384	12	12
7	1396	12.2	12.2
7	1404	12.4	12.4
7	1412	12.6	12.6
7	1420	12.8	12.8
7	1428	13	13
7	1436	13.2	13.2
7	1444	13.4	13.4
7	1452	13.6	13.6
7	1460	13.8	13.8
7	1468	14	14
7	1476	14.2	14.2
7	1484	14.4	14.4
7	1492	14.6	14.6
7	1500	14.8	14.8

