version 2
run MicrogridNetwork-0-20180309-12:01:21-1862
attr configname MicrogridNetwork
attr datetime 20180309-12:01:21
attr experiment MicrogridNetwork
attr inifile omnetpp.ini
attr iterationvars ""
attr iterationvarsf ""
attr measurement ""
attr network MicrogridNetwork
attr processid 1862
attr repetition 0
attr replication #0
attr resultdir results
attr runnumber 0
attr seedset 0

vector 0 MicrogridNetwork.pico[0].queue queueLength:vector ETV
attr interpolationmode sample-hold
attr title "queue length, vector"
vector 1 MicrogridNetwork.pico[1].queue queueLength:vector ETV
attr interpolationmode sample-hold
attr title "queue length, vector"
vector 2 MicrogridNetwork.pico[2].queue queueLength:vector ETV
attr interpolationmode sample-hold
attr title "queue length, vector"
vector 3 MicrogridNetwork.pico[3].queue queueLength:vector ETV
attr interpolationmode sample-hold
attr title "queue length, vector"
vector 4 MicrogridNetwork.pico[0].queue queueingTime:vector ETV
attr interpolationmode none
attr title "queueing time at dequeue, vector"
attr unit s
vector 5 MicrogridNetwork.pico[1].queue queueingTime:vector ETV
attr interpolationmode none
attr title "queueing time at dequeue, vector"
attr unit s
vector 6 MicrogridNetwork.pico[2].queue queueingTime:vector ETV
attr interpolationmode none
attr title "queueing time at dequeue, vector"
attr unit s
vector 7 MicrogridNetwork.pico[3].queue queueingTime:vector ETV
attr interpolationmode none
attr title "queueing time at dequeue, vector"
attr unit s
0	0	0	0
0	25	0.1	1
0	26	0.1	2
0	27	0.1	3
0	61	0.6	2
0	77	0.6	3
0	78	0.6	4
0	79	0.6	5
0	90	0.7	4
0	98	0.8	3
0	106	0.9	2
0	126	1	1
0	146	1.1	0
0	153	1.1	1
0	154	1.1	2
0	155	1.1	3
0	166	1.2	2
0	174	1.3	1
0	182	1.4	0
0	221	1.6	1
0	222	1.6	2
0	223	1.6	3
0	245	2.1	2
0	261	2.1	3
0	262	2.1	4
0	263	2.1	5
0	274	2.2	4
0	282	2.3	3
0	290	2.4	2
0	310	2.5	1
0	330	2.6	0
0	337	2.6	1
0	338	2.6	2
0	339	2.6	3
0	350	2.7	2
0	358	2.8	1
0	366	2.9	0
0	409	3.1	1
0	410	3.1	2
0	411	3.1	3
0	445	3.6	2
0	461	3.6	3
0	462	3.6	4
0	463	3.6	5
0	474	3.7	4
0	482	3.8	3
0	490	3.9	2
0	510	4	1
0	530	4.1	0
0	537	4.1	1
0	538	4.1	2
0	539	4.1	3
0	550	4.2	2
0	558	4.3	1
0	566	4.4	0
0	605	4.6	1
0	606	4.6	2
0	607	4.6	3
0	629	5.1	2
0	645	5.1	3
0	646	5.1	4
0	647	5.1	5
0	658	5.2	4
0	666	5.3	3
0	674	5.4	2
0	694	5.5	1
0	714	5.6	0
0	721	5.6	1
0	722	5.6	2
0	723	5.6	3
0	734	5.7	2
0	742	5.8	1
0	750	5.9	0
0	793	6.1	1
0	794	6.1	2
0	795	6.1	3
0	829	6.6	2
0	845	6.6	3
0	846	6.6	4
0	847	6.6	5
0	858	6.7	4
0	866	6.8	3
0	874	6.9	2
0	894	7	1
0	914	7.1	0
0	921	7.1	1
0	922	7.1	2
0	923	7.1	3
0	934	7.2	2
0	942	7.3	1
0	950	7.4	0
0	989	7.6	1
0	990	7.6	2
0	991	7.6	3
0	1013	8.1	2
0	1029	8.1	3
0	1030	8.1	4
0	1031	8.1	5
0	1042	8.2	4
0	1050	8.3	3
0	1058	8.4	2
0	1078	8.5	1
0	1098	8.6	0
0	1105	8.6	1
0	1106	8.6	2
0	1107	8.6	3
0	1118	8.7	2
0	1126	8.8	1
0	1134	8.9	0
0	1177	9.1	1
0	1178	9.1	2
0	1179	9.1	3
0	1213	9.6	2
0	1229	9.6	3
0	1230	9.6	4
0	1231	9.6	5
0	1242	9.7	4
0	1250	9.8	3
0	1258	9.9	2
0	1278	10	1
0	1298	10.1	0
0	1305	10.1	1
0	1306	10.1	2
0	1307	10.1	3
0	1318	10.2	2
0	1326	10.3	1
0	1334	10.4	0
0	1373	10.6	1
0	1374	10.6	2
0	1375	10.6	3
0	1397	11.1	2
0	1413	11.1	3
0	1414	11.1	4
0	1415	11.1	5
0	1426	11.2	4
0	1434	11.3	3
0	1442	11.4	2
0	1462	11.5	1
0	1482	11.6	0
0	1489	11.6	1
0	1490	11.6	2
0	1491	11.6	3
0	1502	11.7	2
0	1510	11.8	1
0	1518	11.9	0
1	0	0	0
1	28	0.1	1
1	29	0.1	2
1	30	0.1	3
1	62	0.6	2
1	80	0.6	3
1	81	0.6	4
1	82	0.6	5
1	92	0.7	4
1	100	0.8	3
1	108	0.9	2
1	128	1	1
1	148	1.1	0
1	156	1.1	1
1	157	1.1	2
1	158	1.1	3
1	168	1.2	2
1	176	1.3	1
1	184	1.4	0
1	224	1.6	1
1	225	1.6	2
1	226	1.6	3
1	246	2.1	2
1	264	2.1	3
1	265	2.1	4
1	266	2.1	5
1	276	2.2	4
1	284	2.3	3
1	292	2.4	2
1	312	2.5	1
1	332	2.6	0
1	340	2.6	1
1	341	2.6	2
1	342	2.6	3
1	352	2.7	2
1	360	2.8	1
1	368	2.9	0
1	412	3.1	1
1	413	3.1	2
1	414	3.1	3
1	446	3.6	2
1	464	3.6	3
1	465	3.6	4
1	466	3.6	5
1	476	3.7	4
1	484	3.8	3
1	492	3.9	2
1	512	4	1
1	532	4.1	0
1	540	4.1	1
1	541	4.1	2
1	542	4.1	3
1	552	4.2	2
1	560	4.3	1
1	568	4.4	0
1	608	4.6	1
1	609	4.6	2
1	610	4.6	3
1	630	5.1	2
1	648	5.1	3
1	649	5.1	4
1	650	5.1	5
1	660	5.2	4
1	668	5.3	3
1	676	5.4	2
1	696	5.5	1
1	716	5.6	0
1	724	5.6	1
1	725	5.6	2
1	726	5.6	3
1	736	5.7	2
1	744	5.8	1
1	752	5.9	0
1	796	6.1	1
1	797	6.1	2
1	798	6.1	3
1	830	6.6	2
1	848	6.6	3
1	849	6.6	4
1	850	6.6	5
1	860	6.7	4
1	868	6.8	3
1	876	6.9	2
1	896	7	1
1	916	7.1	0
1	924	7.1	1
1	925	7.1	2
1	926	7.1	3
1	936	7.2	2
1	944	7.3	1
1	952	7.4	0
1	992	7.6	1
1	993	7.6	2
1	994	7.6	3
1	1014	8.1	2
1	1032	8.1	3
1	1033	8.1	4
1	1034	8.1	5
1	1044	8.2	4
1	1052	8.3	3
1	1060	8.4	2
1	1080	8.5	1
1	1100	8.6	0
1	1108	8.6	1
1	1109	8.6	2
1	1110	8.6	3
1	1120	8.7	2
1	1128	8.8	1
1	1136	8.9	0
1	1180	9.1	1
1	1181	9.1	2
1	1182	9.1	3
1	1214	9.6	2
1	1232	9.6	3
1	1233	9.6	4
1	1234	9.6	5
1	1244	9.7	4
1	1252	9.8	3
1	1260	9.9	2
1	1280	10	1
1	1300	10.1	0
1	1308	10.1	1
1	1309	10.1	2
1	1310	10.1	3
1	1320	10.2	2
1	1328	10.3	1
1	1336	10.4	0
1	1376	10.6	1
1	1377	10.6	2
1	1378	10.6	3
1	1398	11.1	2
1	1416	11.1	3
1	1417	11.1	4
1	1418	11.1	5
1	1428	11.2	4
1	1436	11.3	3
1	1444	11.4	2
1	1464	11.5	1
1	1484	11.6	0
1	1492	11.6	1
1	1493	11.6	2
1	1494	11.6	3
1	1504	11.7	2
1	1512	11.8	1
1	1520	11.9	0
2	0	0	0
2	31	0.1	1
2	32	0.1	2
2	33	0.1	3
2	63	0.6	2
2	83	0.6	3
2	84	0.6	4
2	85	0.6	5
2	94	0.7	4
2	102	0.8	3
2	110	0.9	2
2	130	1	1
2	150	1.1	0
2	159	1.1	1
2	160	1.1	2
2	161	1.1	3
2	170	1.2	2
2	178	1.3	1
2	186	1.4	0
2	227	1.6	1
2	228	1.6	2
2	229	1.6	3
2	247	2.1	2
2	267	2.1	3
2	268	2.1	4
2	269	2.1	5
2	278	2.2	4
2	286	2.3	3
2	294	2.4	2
2	314	2.5	1
2	334	2.6	0
2	343	2.6	1
2	344	2.6	2
2	345	2.6	3
2	354	2.7	2
2	362	2.8	1
2	370	2.9	0
2	415	3.1	1
2	416	3.1	2
2	417	3.1	3
2	447	3.6	2
2	467	3.6	3
2	468	3.6	4
2	469	3.6	5
2	478	3.7	4
2	486	3.8	3
2	494	3.9	2
2	514	4	1
2	534	4.1	0
2	543	4.1	1
2	544	4.1	2
2	545	4.1	3
2	554	4.2	2
2	562	4.3	1
2	570	4.4	0
2	611	4.6	1
2	612	4.6	2
2	613	4.6	3
2	631	5.1	2
2	651	5.1	3
2	652	5.1	4
2	653	5.1	5
2	662	5.2	4
2	670	5.3	3
2	678	5.4	2
2	698	5.5	1
2	718	5.6	0
2	727	5.6	1
2	728	5.6	2
2	729	5.6	3
2	738	5.7	2
2	746	5.8	1
2	754	5.9	0
2	799	6.1	1
2	800	6.1	2
2	801	6.1	3
2	831	6.6	2
2	851	6.6	3
2	852	6.6	4
2	853	6.6	5
2	862	6.7	4
2	870	6.8	3
2	878	6.9	2
2	898	7	1
2	918	7.1	0
2	927	7.1	1
2	928	7.1	2
2	929	7.1	3
2	938	7.2	2
2	946	7.3	1
2	954	7.4	0
2	995	7.6	1
2	996	7.6	2
2	997	7.6	3
2	1015	8.1	2
2	1035	8.1	3
2	1036	8.1	4
2	1037	8.1	5
2	1046	8.2	4
2	1054	8.3	3
2	1062	8.4	2
2	1082	8.5	1
2	1102	8.6	0
2	1111	8.6	1
2	1112	8.6	2
2	1113	8.6	3
2	1122	8.7	2
2	1130	8.8	1
2	1138	8.9	0
2	1183	9.1	1
2	1184	9.1	2
2	1185	9.1	3
2	1215	9.6	2
2	1235	9.6	3
2	1236	9.6	4
2	1237	9.6	5
2	1246	9.7	4
2	1254	9.8	3
2	1262	9.9	2
2	1282	10	1
2	1302	10.1	0
2	1311	10.1	1
2	1312	10.1	2
2	1313	10.1	3
2	1322	10.2	2
2	1330	10.3	1
2	1338	10.4	0
2	1379	10.6	1
2	1380	10.6	2
2	1381	10.6	3
2	1399	11.1	2
2	1419	11.1	3
2	1420	11.1	4
2	1421	11.1	5
2	1430	11.2	4
2	1438	11.3	3
2	1446	11.4	2
2	1466	11.5	1
2	1486	11.6	0
2	1495	11.6	1
2	1496	11.6	2
2	1497	11.6	3
2	1506	11.7	2
2	1514	11.8	1
2	1522	11.9	0
3	0	0	0
3	34	0.1	1
3	35	0.1	2
3	36	0.1	3
3	64	0.6	2
3	86	0.6	3
3	87	0.6	4
3	88	0.6	5
3	96	0.7	4
3	104	0.8	3
3	112	0.9	2
3	132	1	1
3	152	1.1	0
3	162	1.1	1
3	163	1.1	2
3	164	1.1	3
3	172	1.2	2
3	180	1.3	1
3	188	1.4	0
3	230	1.6	1
3	231	1.6	2
3	232	1.6	3
3	248	2.1	2
3	270	2.1	3
3	271	2.1	4
3	272	2.1	5
3	280	2.2	4
3	288	2.3	3
3	296	2.4	2
3	316	2.5	1
3	336	2.6	0
3	346	2.6	1
3	347	2.6	2
3	348	2.6	3
3	356	2.7	2
3	364	2.8	1
3	372	2.9	0
3	418	3.1	1
3	419	3.1	2
3	420	3.1	3
3	448	3.6	2
3	470	3.6	3
3	471	3.6	4
3	472	3.6	5
3	480	3.7	4
3	488	3.8	3
3	496	3.9	2
3	516	4	1
3	536	4.1	0
3	546	4.1	1
3	547	4.1	2
3	548	4.1	3
3	556	4.2	2
3	564	4.3	1
3	572	4.4	0
3	614	4.6	1
3	615	4.6	2
3	616	4.6	3
3	632	5.1	2
3	654	5.1	3
3	655	5.1	4
3	656	5.1	5
3	664	5.2	4
3	672	5.3	3
3	680	5.4	2
3	700	5.5	1
3	720	5.6	0
3	730	5.6	1
3	731	5.6	2
3	732	5.6	3
3	740	5.7	2
3	748	5.8	1
3	756	5.9	0
3	802	6.1	1
3	803	6.1	2
3	804	6.1	3
3	832	6.6	2
3	854	6.6	3
3	855	6.6	4
3	856	6.6	5
3	864	6.7	4
3	872	6.8	3
3	880	6.9	2
3	900	7	1
3	920	7.1	0
3	930	7.1	1
3	931	7.1	2
3	932	7.1	3
3	940	7.2	2
3	948	7.3	1
3	956	7.4	0
3	998	7.6	1
3	999	7.6	2
3	1000	7.6	3
3	1016	8.1	2
3	1038	8.1	3
3	1039	8.1	4
3	1040	8.1	5
3	1048	8.2	4
3	1056	8.3	3
3	1064	8.4	2
3	1084	8.5	1
3	1104	8.6	0
3	1114	8.6	1
3	1115	8.6	2
3	1116	8.6	3
3	1124	8.7	2
3	1132	8.8	1
3	1140	8.9	0
3	1186	9.1	1
3	1187	9.1	2
3	1188	9.1	3
3	1216	9.6	2
3	1238	9.6	3
3	1239	9.6	4
3	1240	9.6	5
3	1248	9.7	4
3	1256	9.8	3
3	1264	9.9	2
3	1284	10	1
3	1304	10.1	0
3	1314	10.1	1
3	1315	10.1	2
3	1316	10.1	3
3	1324	10.2	2
3	1332	10.3	1
3	1340	10.4	0
3	1382	10.6	1
3	1383	10.6	2
3	1384	10.6	3
3	1400	11.1	2
3	1422	11.1	3
3	1423	11.1	4
3	1424	11.1	5
3	1432	11.2	4
3	1440	11.3	3
3	1448	11.4	2
3	1468	11.5	1
3	1488	11.6	0
3	1498	11.6	1
3	1499	11.6	2
3	1500	11.6	3
3	1508	11.7	2
3	1516	11.8	1
3	1524	11.9	0
4	61	0.6	0.6
4	90	0.7	0.7
4	98	0.8	0.8
4	106	0.9	0.9
4	126	1	1
4	146	1.1	1.1
4	166	1.2	1.2
4	174	1.3	1.3
4	182	1.4	1.4
4	245	2.1	2.1
4	274	2.2	2.2
4	282	2.3	2.3
4	290	2.4	2.4
4	310	2.5	2.5
4	330	2.6	2.6
4	350	2.7	2.7
4	358	2.8	2.8
4	366	2.9	2.9
4	445	3.6	3.6
4	474	3.7	3.7
4	482	3.8	3.8
4	490	3.9	3.9
4	510	4	4
4	530	4.1	4.1
4	550	4.2	4.2
4	558	4.3	4.3
4	566	4.4	4.4
4	629	5.1	5.1
4	658	5.2	5.2
4	666	5.3	5.3
4	674	5.4	5.4
4	694	5.5	5.5
4	714	5.6	5.6
4	734	5.7	5.7
4	742	5.8	5.8
4	750	5.9	5.9
4	829	6.6	6.6
4	858	6.7	6.7
4	866	6.8	6.8
4	874	6.9	6.9
4	894	7	7
4	914	7.1	7.1
4	934	7.2	7.2
4	942	7.3	7.3
4	950	7.4	7.4
4	1013	8.1	8.1
4	1042	8.2	8.2
4	1050	8.3	8.3
4	1058	8.4	8.4
4	1078	8.5	8.5
4	1098	8.6	8.6
4	1118	8.7	8.7
4	1126	8.8	8.8
4	1134	8.9	8.9
4	1213	9.6	9.6
4	1242	9.7	9.7
4	1250	9.8	9.8
4	1258	9.9	9.9
4	1278	10	10
4	1298	10.1	10.1
4	1318	10.2	10.2
4	1326	10.3	10.3
4	1334	10.4	10.4
4	1397	11.1	11.1
4	1426	11.2	11.2
4	1434	11.3	11.3
4	1442	11.4	11.4
4	1462	11.5	11.5
4	1482	11.6	11.6
4	1502	11.7	11.7
4	1510	11.8	11.8
4	1518	11.9	11.9
5	62	0.6	0.6
5	92	0.7	0.7
5	100	0.8	0.8
5	108	0.9	0.9
5	128	1	1
5	148	1.1	1.1
5	168	1.2	1.2
5	176	1.3	1.3
5	184	1.4	1.4
5	246	2.1	2.1
5	276	2.2	2.2
5	284	2.3	2.3
5	292	2.4	2.4
5	312	2.5	2.5
5	332	2.6	2.6
5	352	2.7	2.7
5	360	2.8	2.8
5	368	2.9	2.9
5	446	3.6	3.6
5	476	3.7	3.7
5	484	3.8	3.8
5	492	3.9	3.9
5	512	4	4
5	532	4.1	4.1
5	552	4.2	4.2
5	560	4.3	4.3
5	568	4.4	4.4
5	630	5.1	5.1
5	660	5.2	5.2
5	668	5.3	5.3
5	676	5.4	5.4
5	696	5.5	5.5
5	716	5.6	5.6
5	736	5.7	5.7
5	744	5.8	5.8
5	752	5.9	5.9
5	830	6.6	6.6
5	860	6.7	6.7
5	868	6.8	6.8
5	876	6.9	6.9
5	896	7	7
5	916	7.1	7.1
5	936	7.2	7.2
5	944	7.3	7.3
5	952	7.4	7.4
5	1014	8.1	8.1
5	1044	8.2	8.2
5	1052	8.3	8.3
5	1060	8.4	8.4
5	1080	8.5	8.5
5	1100	8.6	8.6
5	1120	8.7	8.7
5	1128	8.8	8.8
5	1136	8.9	8.9
5	1214	9.6	9.6
5	1244	9.7	9.7
5	1252	9.8	9.8
5	1260	9.9	9.9
5	1280	10	10
5	1300	10.1	10.1
5	1320	10.2	10.2
5	1328	10.3	10.3
5	1336	10.4	10.4
5	1398	11.1	11.1
5	1428	11.2	11.2
5	1436	11.3	11.3
5	1444	11.4	11.4
5	1464	11.5	11.5
5	1484	11.6	11.6
5	1504	11.7	11.7
5	1512	11.8	11.8
5	1520	11.9	11.9
6	63	0.6	0.6
6	94	0.7	0.7
6	102	0.8	0.8
6	110	0.9	0.9
6	130	1	1
6	150	1.1	1.1
6	170	1.2	1.2
6	178	1.3	1.3
6	186	1.4	1.4
6	247	2.1	2.1
6	278	2.2	2.2
6	286	2.3	2.3
6	294	2.4	2.4
6	314	2.5	2.5
6	334	2.6	2.6
6	354	2.7	2.7
6	362	2.8	2.8
6	370	2.9	2.9
6	447	3.6	3.6
6	478	3.7	3.7
6	486	3.8	3.8
6	494	3.9	3.9
6	514	4	4
6	534	4.1	4.1
6	554	4.2	4.2
6	562	4.3	4.3
6	570	4.4	4.4
6	631	5.1	5.1
6	662	5.2	5.2
6	670	5.3	5.3
6	678	5.4	5.4
6	698	5.5	5.5
6	718	5.6	5.6
6	738	5.7	5.7
6	746	5.8	5.8
6	754	5.9	5.9
6	831	6.6	6.6
6	862	6.7	6.7
6	870	6.8	6.8
6	878	6.9	6.9
6	898	7	7
6	918	7.1	7.1
6	938	7.2	7.2
6	946	7.3	7.3
6	954	7.4	7.4
6	1015	8.1	8.1
6	1046	8.2	8.2
6	1054	8.3	8.3
6	1062	8.4	8.4
6	1082	8.5	8.5
6	1102	8.6	8.6
6	1122	8.7	8.7
6	1130	8.8	8.8
6	1138	8.9	8.9
6	1215	9.6	9.6
6	1246	9.7	9.7
6	1254	9.8	9.8
6	1262	9.9	9.9
6	1282	10	10
6	1302	10.1	10.1
6	1322	10.2	10.2
6	1330	10.3	10.3
6	1338	10.4	10.4
6	1399	11.1	11.1
6	1430	11.2	11.2
6	1438	11.3	11.3
6	1446	11.4	11.4
6	1466	11.5	11.5
6	1486	11.6	11.6
6	1506	11.7	11.7
6	1514	11.8	11.8
6	1522	11.9	11.9
7	64	0.6	0.6
7	96	0.7	0.7
7	104	0.8	0.8
7	112	0.9	0.9
7	132	1	1
7	152	1.1	1.1
7	172	1.2	1.2
7	180	1.3	1.3
7	188	1.4	1.4
7	248	2.1	2.1
7	280	2.2	2.2
7	288	2.3	2.3
7	296	2.4	2.4
7	316	2.5	2.5
7	336	2.6	2.6
7	356	2.7	2.7
7	364	2.8	2.8
7	372	2.9	2.9
7	448	3.6	3.6
7	480	3.7	3.7
7	488	3.8	3.8
7	496	3.9	3.9
7	516	4	4
7	536	4.1	4.1
7	556	4.2	4.2
7	564	4.3	4.3
7	572	4.4	4.4
7	632	5.1	5.1
7	664	5.2	5.2
7	672	5.3	5.3
7	680	5.4	5.4
7	700	5.5	5.5
7	720	5.6	5.6
7	740	5.7	5.7
7	748	5.8	5.8
7	756	5.9	5.9
7	832	6.6	6.6
7	864	6.7	6.7
7	872	6.8	6.8
7	880	6.9	6.9
7	900	7	7
7	920	7.1	7.1
7	940	7.2	7.2
7	948	7.3	7.3
7	956	7.4	7.4
7	1016	8.1	8.1
7	1048	8.2	8.2
7	1056	8.3	8.3
7	1064	8.4	8.4
7	1084	8.5	8.5
7	1104	8.6	8.6
7	1124	8.7	8.7
7	1132	8.8	8.8
7	1140	8.9	8.9
7	1216	9.6	9.6
7	1248	9.7	9.7
7	1256	9.8	9.8
7	1264	9.9	9.9
7	1284	10	10
7	1304	10.1	10.1
7	1324	10.2	10.2
7	1332	10.3	10.3
7	1340	10.4	10.4
7	1400	11.1	11.1
7	1432	11.2	11.2
7	1440	11.3	11.3
7	1448	11.4	11.4
7	1468	11.5	11.5
7	1488	11.6	11.6
7	1508	11.7	11.7
7	1516	11.8	11.8
7	1524	11.9	11.9

