version 2
run MicrogridNetwork-0-20180306-10:49:37-9579
attr configname MicrogridNetwork
attr datetime 20180306-10:49:37
attr experiment MicrogridNetwork
attr inifile omnetpp.ini
attr iterationvars ""
attr iterationvarsf ""
attr measurement ""
attr network MicrogridNetwork
attr processid 9579
attr repetition 0
attr replication #0
attr resultdir results
attr runnumber 0
attr seedset 0

vector 0 MicrogridNetwork.pico[0].queue queueLength:vector ETV
attr interpolationmode sample-hold
attr title "queue length, vector"
vector 1 MicrogridNetwork.pico[1].queue queueLength:vector ETV
attr interpolationmode sample-hold
attr title "queue length, vector"
vector 2 MicrogridNetwork.pico[2].queue queueLength:vector ETV
attr interpolationmode sample-hold
attr title "queue length, vector"
vector 3 MicrogridNetwork.pico[3].queue queueLength:vector ETV
attr interpolationmode sample-hold
attr title "queue length, vector"
vector 4 MicrogridNetwork.pico[0].queue queueingTime:vector ETV
attr interpolationmode none
attr title "queueing time at dequeue, vector"
attr unit s
vector 5 MicrogridNetwork.pico[1].queue queueingTime:vector ETV
attr interpolationmode none
attr title "queueing time at dequeue, vector"
attr unit s
vector 6 MicrogridNetwork.pico[2].queue queueingTime:vector ETV
attr interpolationmode none
attr title "queueing time at dequeue, vector"
attr unit s
vector 7 MicrogridNetwork.pico[3].queue queueingTime:vector ETV
attr interpolationmode none
attr title "queueing time at dequeue, vector"
attr unit s
0	0	0	0
0	25	0.1	1
0	26	0.1	2
0	27	0.1	3
0	73	0.6	4
0	74	0.6	5
0	75	0.6	6
0	97	1.1	5
0	97	1.1	4
0	97	1.1	3
0	97	1.1	2
0	97	1.1	1
0	97	1.1	0
0	113	1.1	1
0	114	1.1	2
0	115	1.1	3
0	173	1.6	4
0	174	1.6	5
0	175	1.6	6
0	197	2.1	5
0	197	2.1	4
0	197	2.1	3
0	197	2.1	2
0	197	2.1	1
0	197	2.1	0
0	213	2.1	1
0	214	2.1	2
0	215	2.1	3
0	273	2.6	4
0	274	2.6	5
0	275	2.6	6
0	301	3.1	5
0	301	3.1	4
0	301	3.1	3
0	301	3.1	2
0	301	3.1	1
0	301	3.1	0
0	317	3.1	1
0	318	3.1	2
0	319	3.1	3
0	389	3.6	4
0	390	3.6	5
0	391	3.6	6
0	413	4.1	5
0	413	4.1	4
0	413	4.1	3
0	413	4.1	2
0	413	4.1	1
0	413	4.1	0
0	429	4.1	1
0	430	4.1	2
0	431	4.1	3
0	489	4.6	4
0	490	4.6	5
0	491	4.6	6
0	513	5.1	5
0	513	5.1	4
0	513	5.1	3
0	513	5.1	2
0	513	5.1	1
0	513	5.1	0
0	529	5.1	1
0	530	5.1	2
0	531	5.1	3
0	589	5.6	4
0	590	5.6	5
0	591	5.6	6
0	617	6.1	5
0	617	6.1	4
0	617	6.1	3
0	617	6.1	2
0	617	6.1	1
0	617	6.1	0
0	633	6.1	1
0	634	6.1	2
0	635	6.1	3
0	705	6.6	4
0	706	6.6	5
0	707	6.6	6
0	729	7.1	5
0	729	7.1	4
0	729	7.1	3
0	729	7.1	2
0	729	7.1	1
0	729	7.1	0
0	745	7.1	1
0	746	7.1	2
0	747	7.1	3
0	805	7.6	4
0	806	7.6	5
0	807	7.6	6
0	829	8.1	5
0	829	8.1	4
0	829	8.1	3
0	829	8.1	2
0	829	8.1	1
0	829	8.1	0
0	845	8.1	1
0	846	8.1	2
0	847	8.1	3
0	905	8.6	4
0	906	8.6	5
0	907	8.6	6
0	933	9.1	5
0	933	9.1	4
0	933	9.1	3
0	933	9.1	2
0	933	9.1	1
0	933	9.1	0
0	949	9.1	1
0	950	9.1	2
0	951	9.1	3
0	1021	9.6	4
0	1022	9.6	5
0	1023	9.6	6
0	1045	10.1	5
0	1045	10.1	4
0	1045	10.1	3
0	1045	10.1	2
0	1045	10.1	1
0	1045	10.1	0
0	1061	10.1	1
0	1062	10.1	2
0	1063	10.1	3
0	1121	10.6	4
0	1122	10.6	5
0	1123	10.6	6
0	1145	11.1	5
0	1145	11.1	4
0	1145	11.1	3
0	1145	11.1	2
0	1145	11.1	1
0	1145	11.1	0
0	1161	11.1	1
0	1162	11.1	2
0	1163	11.1	3
0	1221	11.6	4
0	1222	11.6	5
0	1223	11.6	6
0	1237	12.1	5
0	1237	12.1	4
0	1237	12.1	3
0	1237	12.1	2
0	1237	12.1	1
0	1237	12.1	0
1	0	0	0
1	28	0.1	1
1	29	0.1	2
1	30	0.1	3
1	76	0.6	4
1	77	0.6	5
1	78	0.6	6
1	98	1.1	5
1	98	1.1	4
1	98	1.1	3
1	98	1.1	2
1	98	1.1	1
1	98	1.1	0
1	116	1.1	1
1	117	1.1	2
1	118	1.1	3
1	176	1.6	4
1	177	1.6	5
1	178	1.6	6
1	198	2.1	5
1	198	2.1	4
1	198	2.1	3
1	198	2.1	2
1	198	2.1	1
1	198	2.1	0
1	216	2.1	1
1	217	2.1	2
1	218	2.1	3
1	276	2.6	4
1	277	2.6	5
1	278	2.6	6
1	302	3.1	5
1	302	3.1	4
1	302	3.1	3
1	302	3.1	2
1	302	3.1	1
1	302	3.1	0
1	320	3.1	1
1	321	3.1	2
1	322	3.1	3
1	392	3.6	4
1	393	3.6	5
1	394	3.6	6
1	414	4.1	5
1	414	4.1	4
1	414	4.1	3
1	414	4.1	2
1	414	4.1	1
1	414	4.1	0
1	432	4.1	1
1	433	4.1	2
1	434	4.1	3
1	492	4.6	4
1	493	4.6	5
1	494	4.6	6
1	514	5.1	5
1	514	5.1	4
1	514	5.1	3
1	514	5.1	2
1	514	5.1	1
1	514	5.1	0
1	532	5.1	1
1	533	5.1	2
1	534	5.1	3
1	592	5.6	4
1	593	5.6	5
1	594	5.6	6
1	618	6.1	5
1	618	6.1	4
1	618	6.1	3
1	618	6.1	2
1	618	6.1	1
1	618	6.1	0
1	636	6.1	1
1	637	6.1	2
1	638	6.1	3
1	708	6.6	4
1	709	6.6	5
1	710	6.6	6
1	730	7.1	5
1	730	7.1	4
1	730	7.1	3
1	730	7.1	2
1	730	7.1	1
1	730	7.1	0
1	748	7.1	1
1	749	7.1	2
1	750	7.1	3
1	808	7.6	4
1	809	7.6	5
1	810	7.6	6
1	830	8.1	5
1	830	8.1	4
1	830	8.1	3
1	830	8.1	2
1	830	8.1	1
1	830	8.1	0
1	848	8.1	1
1	849	8.1	2
1	850	8.1	3
1	908	8.6	4
1	909	8.6	5
1	910	8.6	6
1	934	9.1	5
1	934	9.1	4
1	934	9.1	3
1	934	9.1	2
1	934	9.1	1
1	934	9.1	0
1	952	9.1	1
1	953	9.1	2
1	954	9.1	3
1	1024	9.6	4
1	1025	9.6	5
1	1026	9.6	6
1	1046	10.1	5
1	1046	10.1	4
1	1046	10.1	3
1	1046	10.1	2
1	1046	10.1	1
1	1046	10.1	0
1	1064	10.1	1
1	1065	10.1	2
1	1066	10.1	3
1	1124	10.6	4
1	1125	10.6	5
1	1126	10.6	6
1	1146	11.1	5
1	1146	11.1	4
1	1146	11.1	3
1	1146	11.1	2
1	1146	11.1	1
1	1146	11.1	0
1	1164	11.1	1
1	1165	11.1	2
1	1166	11.1	3
1	1224	11.6	4
1	1225	11.6	5
1	1226	11.6	6
1	1238	12.1	5
1	1238	12.1	4
1	1238	12.1	3
1	1238	12.1	2
1	1238	12.1	1
1	1238	12.1	0
2	0	0	0
2	31	0.1	1
2	32	0.1	2
2	33	0.1	3
2	79	0.6	4
2	80	0.6	5
2	81	0.6	6
2	99	1.1	5
2	99	1.1	4
2	99	1.1	3
2	99	1.1	2
2	99	1.1	1
2	99	1.1	0
2	119	1.1	1
2	120	1.1	2
2	121	1.1	3
2	179	1.6	4
2	180	1.6	5
2	181	1.6	6
2	199	2.1	5
2	199	2.1	4
2	199	2.1	3
2	199	2.1	2
2	199	2.1	1
2	199	2.1	0
2	219	2.1	1
2	220	2.1	2
2	221	2.1	3
2	279	2.6	4
2	280	2.6	5
2	281	2.6	6
2	303	3.1	5
2	303	3.1	4
2	303	3.1	3
2	303	3.1	2
2	303	3.1	1
2	303	3.1	0
2	323	3.1	1
2	324	3.1	2
2	325	3.1	3
2	395	3.6	4
2	396	3.6	5
2	397	3.6	6
2	415	4.1	5
2	415	4.1	4
2	415	4.1	3
2	415	4.1	2
2	415	4.1	1
2	415	4.1	0
2	435	4.1	1
2	436	4.1	2
2	437	4.1	3
2	495	4.6	4
2	496	4.6	5
2	497	4.6	6
2	515	5.1	5
2	515	5.1	4
2	515	5.1	3
2	515	5.1	2
2	515	5.1	1
2	515	5.1	0
2	535	5.1	1
2	536	5.1	2
2	537	5.1	3
2	595	5.6	4
2	596	5.6	5
2	597	5.6	6
2	619	6.1	5
2	619	6.1	4
2	619	6.1	3
2	619	6.1	2
2	619	6.1	1
2	619	6.1	0
2	639	6.1	1
2	640	6.1	2
2	641	6.1	3
2	711	6.6	4
2	712	6.6	5
2	713	6.6	6
2	731	7.1	5
2	731	7.1	4
2	731	7.1	3
2	731	7.1	2
2	731	7.1	1
2	731	7.1	0
2	751	7.1	1
2	752	7.1	2
2	753	7.1	3
2	811	7.6	4
2	812	7.6	5
2	813	7.6	6
2	831	8.1	5
2	831	8.1	4
2	831	8.1	3
2	831	8.1	2
2	831	8.1	1
2	831	8.1	0
2	851	8.1	1
2	852	8.1	2
2	853	8.1	3
2	911	8.6	4
2	912	8.6	5
2	913	8.6	6
2	935	9.1	5
2	935	9.1	4
2	935	9.1	3
2	935	9.1	2
2	935	9.1	1
2	935	9.1	0
2	955	9.1	1
2	956	9.1	2
2	957	9.1	3
2	1027	9.6	4
2	1028	9.6	5
2	1029	9.6	6
2	1047	10.1	5
2	1047	10.1	4
2	1047	10.1	3
2	1047	10.1	2
2	1047	10.1	1
2	1047	10.1	0
2	1067	10.1	1
2	1068	10.1	2
2	1069	10.1	3
2	1127	10.6	4
2	1128	10.6	5
2	1129	10.6	6
2	1147	11.1	5
2	1147	11.1	4
2	1147	11.1	3
2	1147	11.1	2
2	1147	11.1	1
2	1147	11.1	0
2	1167	11.1	1
2	1168	11.1	2
2	1169	11.1	3
2	1227	11.6	4
2	1228	11.6	5
2	1229	11.6	6
2	1239	12.1	5
2	1239	12.1	4
2	1239	12.1	3
2	1239	12.1	2
2	1239	12.1	1
2	1239	12.1	0
3	0	0	0
3	34	0.1	1
3	35	0.1	2
3	36	0.1	3
3	82	0.6	4
3	83	0.6	5
3	84	0.6	6
3	100	1.1	5
3	100	1.1	4
3	100	1.1	3
3	100	1.1	2
3	100	1.1	1
3	100	1.1	0
3	122	1.1	1
3	123	1.1	2
3	124	1.1	3
3	182	1.6	4
3	183	1.6	5
3	184	1.6	6
3	200	2.1	5
3	200	2.1	4
3	200	2.1	3
3	200	2.1	2
3	200	2.1	1
3	200	2.1	0
3	222	2.1	1
3	223	2.1	2
3	224	2.1	3
3	282	2.6	4
3	283	2.6	5
3	284	2.6	6
3	304	3.1	5
3	304	3.1	4
3	304	3.1	3
3	304	3.1	2
3	304	3.1	1
3	304	3.1	0
3	326	3.1	1
3	327	3.1	2
3	328	3.1	3
3	398	3.6	4
3	399	3.6	5
3	400	3.6	6
3	416	4.1	5
3	416	4.1	4
3	416	4.1	3
3	416	4.1	2
3	416	4.1	1
3	416	4.1	0
3	438	4.1	1
3	439	4.1	2
3	440	4.1	3
3	498	4.6	4
3	499	4.6	5
3	500	4.6	6
3	516	5.1	5
3	516	5.1	4
3	516	5.1	3
3	516	5.1	2
3	516	5.1	1
3	516	5.1	0
3	538	5.1	1
3	539	5.1	2
3	540	5.1	3
3	598	5.6	4
3	599	5.6	5
3	600	5.6	6
3	620	6.1	5
3	620	6.1	4
3	620	6.1	3
3	620	6.1	2
3	620	6.1	1
3	620	6.1	0
3	642	6.1	1
3	643	6.1	2
3	644	6.1	3
3	714	6.6	4
3	715	6.6	5
3	716	6.6	6
3	732	7.1	5
3	732	7.1	4
3	732	7.1	3
3	732	7.1	2
3	732	7.1	1
3	732	7.1	0
3	754	7.1	1
3	755	7.1	2
3	756	7.1	3
3	814	7.6	4
3	815	7.6	5
3	816	7.6	6
3	832	8.1	5
3	832	8.1	4
3	832	8.1	3
3	832	8.1	2
3	832	8.1	1
3	832	8.1	0
3	854	8.1	1
3	855	8.1	2
3	856	8.1	3
3	914	8.6	4
3	915	8.6	5
3	916	8.6	6
3	936	9.1	5
3	936	9.1	4
3	936	9.1	3
3	936	9.1	2
3	936	9.1	1
3	936	9.1	0
3	958	9.1	1
3	959	9.1	2
3	960	9.1	3
3	1030	9.6	4
3	1031	9.6	5
3	1032	9.6	6
3	1048	10.1	5
3	1048	10.1	4
3	1048	10.1	3
3	1048	10.1	2
3	1048	10.1	1
3	1048	10.1	0
3	1070	10.1	1
3	1071	10.1	2
3	1072	10.1	3
3	1130	10.6	4
3	1131	10.6	5
3	1132	10.6	6
3	1148	11.1	5
3	1148	11.1	4
3	1148	11.1	3
3	1148	11.1	2
3	1148	11.1	1
3	1148	11.1	0
3	1170	11.1	1
3	1171	11.1	2
3	1172	11.1	3
3	1230	11.6	4
3	1231	11.6	5
3	1232	11.6	6
3	1240	12.1	5
3	1240	12.1	4
3	1240	12.1	3
3	1240	12.1	2
3	1240	12.1	1
3	1240	12.1	0
4	97	1.1	1.1
4	97	1.1	1.1
4	97	1.1	1.1
4	97	1.1	1.1
4	97	1.1	1.1
4	97	1.1	1.1
4	197	2.1	2.1
4	197	2.1	2.1
4	197	2.1	2.1
4	197	2.1	2.1
4	197	2.1	2.1
4	197	2.1	2.1
4	301	3.1	3.1
4	301	3.1	3.1
4	301	3.1	3.1
4	301	3.1	3.1
4	301	3.1	3.1
4	301	3.1	3.1
4	413	4.1	4.1
4	413	4.1	4.1
4	413	4.1	4.1
4	413	4.1	4.1
4	413	4.1	4.1
4	413	4.1	4.1
4	513	5.1	5.1
4	513	5.1	5.1
4	513	5.1	5.1
4	513	5.1	5.1
4	513	5.1	5.1
4	513	5.1	5.1
4	617	6.1	6.1
4	617	6.1	6.1
4	617	6.1	6.1
4	617	6.1	6.1
4	617	6.1	6.1
4	617	6.1	6.1
4	729	7.1	7.1
4	729	7.1	7.1
4	729	7.1	7.1
4	729	7.1	7.1
4	729	7.1	7.1
4	729	7.1	7.1
4	829	8.1	8.1
4	829	8.1	8.1
4	829	8.1	8.1
4	829	8.1	8.1
4	829	8.1	8.1
4	829	8.1	8.1
4	933	9.1	9.1
4	933	9.1	9.1
4	933	9.1	9.1
4	933	9.1	9.1
4	933	9.1	9.1
4	933	9.1	9.1
4	1045	10.1	10.1
4	1045	10.1	10.1
4	1045	10.1	10.1
4	1045	10.1	10.1
4	1045	10.1	10.1
4	1045	10.1	10.1
4	1145	11.1	11.1
4	1145	11.1	11.1
4	1145	11.1	11.1
4	1145	11.1	11.1
4	1145	11.1	11.1
4	1145	11.1	11.1
4	1237	12.1	12.1
4	1237	12.1	12.1
4	1237	12.1	12.1
4	1237	12.1	12.1
4	1237	12.1	12.1
4	1237	12.1	12.1
5	98	1.1	1.1
5	98	1.1	1.1
5	98	1.1	1.1
5	98	1.1	1.1
5	98	1.1	1.1
5	98	1.1	1.1
5	198	2.1	2.1
5	198	2.1	2.1
5	198	2.1	2.1
5	198	2.1	2.1
5	198	2.1	2.1
5	198	2.1	2.1
5	302	3.1	3.1
5	302	3.1	3.1
5	302	3.1	3.1
5	302	3.1	3.1
5	302	3.1	3.1
5	302	3.1	3.1
5	414	4.1	4.1
5	414	4.1	4.1
5	414	4.1	4.1
5	414	4.1	4.1
5	414	4.1	4.1
5	414	4.1	4.1
5	514	5.1	5.1
5	514	5.1	5.1
5	514	5.1	5.1
5	514	5.1	5.1
5	514	5.1	5.1
5	514	5.1	5.1
5	618	6.1	6.1
5	618	6.1	6.1
5	618	6.1	6.1
5	618	6.1	6.1
5	618	6.1	6.1
5	618	6.1	6.1
5	730	7.1	7.1
5	730	7.1	7.1
5	730	7.1	7.1
5	730	7.1	7.1
5	730	7.1	7.1
5	730	7.1	7.1
5	830	8.1	8.1
5	830	8.1	8.1
5	830	8.1	8.1
5	830	8.1	8.1
5	830	8.1	8.1
5	830	8.1	8.1
5	934	9.1	9.1
5	934	9.1	9.1
5	934	9.1	9.1
5	934	9.1	9.1
5	934	9.1	9.1
5	934	9.1	9.1
5	1046	10.1	10.1
5	1046	10.1	10.1
5	1046	10.1	10.1
5	1046	10.1	10.1
5	1046	10.1	10.1
5	1046	10.1	10.1
5	1146	11.1	11.1
5	1146	11.1	11.1
5	1146	11.1	11.1
5	1146	11.1	11.1
5	1146	11.1	11.1
5	1146	11.1	11.1
5	1238	12.1	12.1
5	1238	12.1	12.1
5	1238	12.1	12.1
5	1238	12.1	12.1
5	1238	12.1	12.1
5	1238	12.1	12.1
6	99	1.1	1.1
6	99	1.1	1.1
6	99	1.1	1.1
6	99	1.1	1.1
6	99	1.1	1.1
6	99	1.1	1.1
6	199	2.1	2.1
6	199	2.1	2.1
6	199	2.1	2.1
6	199	2.1	2.1
6	199	2.1	2.1
6	199	2.1	2.1
6	303	3.1	3.1
6	303	3.1	3.1
6	303	3.1	3.1
6	303	3.1	3.1
6	303	3.1	3.1
6	303	3.1	3.1
6	415	4.1	4.1
6	415	4.1	4.1
6	415	4.1	4.1
6	415	4.1	4.1
6	415	4.1	4.1
6	415	4.1	4.1
6	515	5.1	5.1
6	515	5.1	5.1
6	515	5.1	5.1
6	515	5.1	5.1
6	515	5.1	5.1
6	515	5.1	5.1
6	619	6.1	6.1
6	619	6.1	6.1
6	619	6.1	6.1
6	619	6.1	6.1
6	619	6.1	6.1
6	619	6.1	6.1
6	731	7.1	7.1
6	731	7.1	7.1
6	731	7.1	7.1
6	731	7.1	7.1
6	731	7.1	7.1
6	731	7.1	7.1
6	831	8.1	8.1
6	831	8.1	8.1
6	831	8.1	8.1
6	831	8.1	8.1
6	831	8.1	8.1
6	831	8.1	8.1
6	935	9.1	9.1
6	935	9.1	9.1
6	935	9.1	9.1
6	935	9.1	9.1
6	935	9.1	9.1
6	935	9.1	9.1
6	1047	10.1	10.1
6	1047	10.1	10.1
6	1047	10.1	10.1
6	1047	10.1	10.1
6	1047	10.1	10.1
6	1047	10.1	10.1
6	1147	11.1	11.1
6	1147	11.1	11.1
6	1147	11.1	11.1
6	1147	11.1	11.1
6	1147	11.1	11.1
6	1147	11.1	11.1
6	1239	12.1	12.1
6	1239	12.1	12.1
6	1239	12.1	12.1
6	1239	12.1	12.1
6	1239	12.1	12.1
6	1239	12.1	12.1
7	100	1.1	1.1
7	100	1.1	1.1
7	100	1.1	1.1
7	100	1.1	1.1
7	100	1.1	1.1
7	100	1.1	1.1
7	200	2.1	2.1
7	200	2.1	2.1
7	200	2.1	2.1
7	200	2.1	2.1
7	200	2.1	2.1
7	200	2.1	2.1
7	304	3.1	3.1
7	304	3.1	3.1
7	304	3.1	3.1
7	304	3.1	3.1
7	304	3.1	3.1
7	304	3.1	3.1
7	416	4.1	4.1
7	416	4.1	4.1
7	416	4.1	4.1
7	416	4.1	4.1
7	416	4.1	4.1
7	416	4.1	4.1
7	516	5.1	5.1
7	516	5.1	5.1
7	516	5.1	5.1
7	516	5.1	5.1
7	516	5.1	5.1
7	516	5.1	5.1
7	620	6.1	6.1
7	620	6.1	6.1
7	620	6.1	6.1
7	620	6.1	6.1
7	620	6.1	6.1
7	620	6.1	6.1
7	732	7.1	7.1
7	732	7.1	7.1
7	732	7.1	7.1
7	732	7.1	7.1
7	732	7.1	7.1
7	732	7.1	7.1
7	832	8.1	8.1
7	832	8.1	8.1
7	832	8.1	8.1
7	832	8.1	8.1
7	832	8.1	8.1
7	832	8.1	8.1
7	936	9.1	9.1
7	936	9.1	9.1
7	936	9.1	9.1
7	936	9.1	9.1
7	936	9.1	9.1
7	936	9.1	9.1
7	1048	10.1	10.1
7	1048	10.1	10.1
7	1048	10.1	10.1
7	1048	10.1	10.1
7	1048	10.1	10.1
7	1048	10.1	10.1
7	1148	11.1	11.1
7	1148	11.1	11.1
7	1148	11.1	11.1
7	1148	11.1	11.1
7	1148	11.1	11.1
7	1148	11.1	11.1
7	1240	12.1	12.1
7	1240	12.1	12.1
7	1240	12.1	12.1
7	1240	12.1	12.1
7	1240	12.1	12.1
7	1240	12.1	12.1

