version 2
run MicrogridNetwork-0-20180312-22:15:21-8742
attr configname MicrogridNetwork
attr datetime 20180312-22:15:21
attr experiment MicrogridNetwork
attr inifile omnetpp.ini
attr iterationvars ""
attr iterationvarsf ""
attr measurement ""
attr network MicrogridNetwork
attr processid 8742
attr repetition 0
attr replication #0
attr resultdir results
attr runnumber 0
attr seedset 0

vector 0 MicrogridNetwork.pico[0].queue queueLength:vector ETV
attr interpolationmode sample-hold
attr title "queue length, vector"
vector 1 MicrogridNetwork.pico[1].queue queueLength:vector ETV
attr interpolationmode sample-hold
attr title "queue length, vector"
vector 2 MicrogridNetwork.pico[2].queue queueLength:vector ETV
attr interpolationmode sample-hold
attr title "queue length, vector"
vector 3 MicrogridNetwork.pico[3].queue queueLength:vector ETV
attr interpolationmode sample-hold
attr title "queue length, vector"
vector 4 MicrogridNetwork.pico[0].queue queueingTime:vector ETV
attr interpolationmode none
attr title "queueing time at dequeue, vector"
attr unit s
vector 5 MicrogridNetwork.pico[1].queue queueingTime:vector ETV
attr interpolationmode none
attr title "queueing time at dequeue, vector"
attr unit s
vector 6 MicrogridNetwork.pico[2].queue queueingTime:vector ETV
attr interpolationmode none
attr title "queueing time at dequeue, vector"
attr unit s
vector 7 MicrogridNetwork.pico[3].queue queueingTime:vector ETV
attr interpolationmode none
attr title "queueing time at dequeue, vector"
attr unit s
vector 8 MicrogridNetwork.macro[0] timeSensitiveQueueMsgTime:vector ETV
attr interpolationmode sample-hold
attr title "timeSensitiveQueueMsgTime, vector"
vector 9 MicrogridNetwork.macro[0] timeMediumQueueMsgTime:vector ETV
attr interpolationmode sample-hold
attr title "timeMediumQueueMsgTime, vector"
vector 10 MicrogridNetwork.macro[0] timeTolerantQueueMsgTime:vector ETV
attr interpolationmode sample-hold
attr title "timeTolerantQueueMsgTime, vector"
0	0	0	0
0	25	0.1	1
0	26	0.1	2
0	27	0.1	3
0	73	0.6	4
0	74	0.6	5
0	75	0.6	6
0	113	1.1	5
0	129	1.1	6
0	130	1.1	7
0	131	1.1	8
0	157	1.3	7
0	177	1.5	6
0	197	1.6	7
0	198	1.6	8
0	199	1.6	9
0	209	1.7	8
0	229	1.9	7
0	253	2.1	6
0	269	2.1	7
0	270	2.1	8
0	271	2.1	9
0	297	2.3	8
0	317	2.5	7
0	337	2.6	8
0	338	2.6	9
0	339	2.6	10
0	349	2.7	9
0	369	2.9	8
0	393	3.1	7
0	409	3.1	8
0	410	3.1	9
0	411	3.1	10
0	437	3.3	9
0	457	3.5	8
0	477	3.6	9
0	478	3.6	10
0	479	3.6	11
0	489	3.7	10
0	509	3.9	9
0	533	4.1	8
0	549	4.1	9
0	550	4.1	10
0	551	4.1	11
0	577	4.3	10
0	597	4.5	9
0	617	4.6	10
0	618	4.6	11
0	619	4.6	12
0	629	4.7	11
0	649	4.9	10
0	673	5.1	9
0	689	5.1	10
0	690	5.1	11
0	691	5.1	12
0	717	5.3	11
0	737	5.5	10
0	757	5.6	11
0	758	5.6	12
0	759	5.6	13
0	769	5.7	12
0	789	5.9	11
0	813	6.1	10
0	829	6.1	11
0	830	6.1	12
0	831	6.1	13
0	857	6.3	12
0	877	6.5	11
0	897	6.6	12
0	898	6.6	13
0	899	6.6	14
0	909	6.7	13
0	929	6.9	12
0	953	7.1	11
0	969	7.1	12
0	970	7.1	13
0	971	7.1	14
0	997	7.3	13
0	1017	7.5	12
0	1037	7.6	13
0	1038	7.6	14
0	1039	7.6	15
0	1049	7.7	14
0	1069	7.9	13
0	1093	8.1	12
0	1109	8.1	13
0	1110	8.1	14
0	1111	8.1	15
0	1137	8.3	14
0	1157	8.5	13
0	1177	8.6	14
0	1178	8.6	15
0	1179	8.6	16
0	1189	8.7	15
0	1209	8.9	14
0	1233	9.1	13
0	1249	9.1	14
0	1250	9.1	15
0	1251	9.1	16
0	1277	9.3	15
0	1297	9.5	14
0	1317	9.6	15
0	1318	9.6	16
0	1319	9.6	17
0	1329	9.7	16
0	1349	9.9	15
0	1373	10.1	14
0	1389	10.1	15
0	1390	10.1	16
0	1391	10.1	17
0	1417	10.3	16
0	1437	10.5	15
0	1457	10.6	16
0	1458	10.6	17
0	1459	10.6	18
0	1469	10.7	17
0	1489	10.9	16
0	1513	11.1	15
0	1529	11.1	16
0	1530	11.1	17
0	1531	11.1	18
0	1557	11.3	17
0	1577	11.5	16
0	1597	11.6	17
0	1598	11.6	18
0	1599	11.6	19
0	1609	11.7	18
0	1629	11.9	17
0	1641	12.1	16
0	1649	12.3	15
0	1657	12.5	14
0	1665	12.7	13
0	1673	12.9	12
0	1681	13.1	11
0	1689	13.3	10
0	1697	13.5	9
0	1705	13.7	8
0	1713	13.9	7
0	1721	14.1	6
0	1729	14.3	5
0	1737	14.5	4
0	1745	14.7	3
0	1753	14.9	2
0	1761	15.1	1
0	1769	15.3	0
1	0	0	0
1	28	0.1	1
1	29	0.1	2
1	30	0.1	3
1	76	0.6	4
1	77	0.6	5
1	78	0.6	6
1	114	1.1	5
1	132	1.1	6
1	133	1.1	7
1	134	1.1	8
1	158	1.3	7
1	178	1.5	6
1	200	1.6	7
1	201	1.6	8
1	202	1.6	9
1	210	1.7	8
1	230	1.9	7
1	254	2.1	6
1	272	2.1	7
1	273	2.1	8
1	274	2.1	9
1	298	2.3	8
1	318	2.5	7
1	340	2.6	8
1	341	2.6	9
1	342	2.6	10
1	350	2.7	9
1	370	2.9	8
1	394	3.1	7
1	412	3.1	8
1	413	3.1	9
1	414	3.1	10
1	438	3.3	9
1	458	3.5	8
1	480	3.6	9
1	481	3.6	10
1	482	3.6	11
1	490	3.7	10
1	510	3.9	9
1	534	4.1	8
1	552	4.1	9
1	553	4.1	10
1	554	4.1	11
1	578	4.3	10
1	598	4.5	9
1	620	4.6	10
1	621	4.6	11
1	622	4.6	12
1	630	4.7	11
1	650	4.9	10
1	674	5.1	9
1	692	5.1	10
1	693	5.1	11
1	694	5.1	12
1	718	5.3	11
1	738	5.5	10
1	760	5.6	11
1	761	5.6	12
1	762	5.6	13
1	770	5.7	12
1	790	5.9	11
1	814	6.1	10
1	832	6.1	11
1	833	6.1	12
1	834	6.1	13
1	858	6.3	12
1	878	6.5	11
1	900	6.6	12
1	901	6.6	13
1	902	6.6	14
1	910	6.7	13
1	930	6.9	12
1	954	7.1	11
1	972	7.1	12
1	973	7.1	13
1	974	7.1	14
1	998	7.3	13
1	1018	7.5	12
1	1040	7.6	13
1	1041	7.6	14
1	1042	7.6	15
1	1050	7.7	14
1	1070	7.9	13
1	1094	8.1	12
1	1112	8.1	13
1	1113	8.1	14
1	1114	8.1	15
1	1138	8.3	14
1	1158	8.5	13
1	1180	8.6	14
1	1181	8.6	15
1	1182	8.6	16
1	1190	8.7	15
1	1210	8.9	14
1	1234	9.1	13
1	1252	9.1	14
1	1253	9.1	15
1	1254	9.1	16
1	1278	9.3	15
1	1298	9.5	14
1	1320	9.6	15
1	1321	9.6	16
1	1322	9.6	17
1	1330	9.7	16
1	1350	9.9	15
1	1374	10.1	14
1	1392	10.1	15
1	1393	10.1	16
1	1394	10.1	17
1	1418	10.3	16
1	1438	10.5	15
1	1460	10.6	16
1	1461	10.6	17
1	1462	10.6	18
1	1470	10.7	17
1	1490	10.9	16
1	1514	11.1	15
1	1532	11.1	16
1	1533	11.1	17
1	1534	11.1	18
1	1558	11.3	17
1	1578	11.5	16
1	1600	11.6	17
1	1601	11.6	18
1	1602	11.6	19
1	1610	11.7	18
1	1630	11.9	17
1	1642	12.1	16
1	1650	12.3	15
1	1658	12.5	14
1	1666	12.7	13
1	1674	12.9	12
1	1682	13.1	11
1	1690	13.3	10
1	1698	13.5	9
1	1706	13.7	8
1	1714	13.9	7
1	1722	14.1	6
1	1730	14.3	5
1	1738	14.5	4
1	1746	14.7	3
1	1754	14.9	2
1	1762	15.1	1
1	1770	15.3	0
2	0	0	0
2	31	0.1	1
2	32	0.1	2
2	33	0.1	3
2	79	0.6	4
2	80	0.6	5
2	81	0.6	6
2	115	1.1	5
2	135	1.1	6
2	136	1.1	7
2	137	1.1	8
2	159	1.3	7
2	179	1.5	6
2	203	1.6	7
2	204	1.6	8
2	205	1.6	9
2	211	1.7	8
2	231	1.9	7
2	255	2.1	6
2	275	2.1	7
2	276	2.1	8
2	277	2.1	9
2	299	2.3	8
2	319	2.5	7
2	343	2.6	8
2	344	2.6	9
2	345	2.6	10
2	351	2.7	9
2	371	2.9	8
2	395	3.1	7
2	415	3.1	8
2	416	3.1	9
2	417	3.1	10
2	439	3.3	9
2	459	3.5	8
2	483	3.6	9
2	484	3.6	10
2	485	3.6	11
2	491	3.7	10
2	511	3.9	9
2	535	4.1	8
2	555	4.1	9
2	556	4.1	10
2	557	4.1	11
2	579	4.3	10
2	599	4.5	9
2	623	4.6	10
2	624	4.6	11
2	625	4.6	12
2	631	4.7	11
2	651	4.9	10
2	675	5.1	9
2	695	5.1	10
2	696	5.1	11
2	697	5.1	12
2	719	5.3	11
2	739	5.5	10
2	763	5.6	11
2	764	5.6	12
2	765	5.6	13
2	771	5.7	12
2	791	5.9	11
2	815	6.1	10
2	835	6.1	11
2	836	6.1	12
2	837	6.1	13
2	859	6.3	12
2	879	6.5	11
2	903	6.6	12
2	904	6.6	13
2	905	6.6	14
2	911	6.7	13
2	931	6.9	12
2	955	7.1	11
2	975	7.1	12
2	976	7.1	13
2	977	7.1	14
2	999	7.3	13
2	1019	7.5	12
2	1043	7.6	13
2	1044	7.6	14
2	1045	7.6	15
2	1051	7.7	14
2	1071	7.9	13
2	1095	8.1	12
2	1115	8.1	13
2	1116	8.1	14
2	1117	8.1	15
2	1139	8.3	14
2	1159	8.5	13
2	1183	8.6	14
2	1184	8.6	15
2	1185	8.6	16
2	1191	8.7	15
2	1211	8.9	14
2	1235	9.1	13
2	1255	9.1	14
2	1256	9.1	15
2	1257	9.1	16
2	1279	9.3	15
2	1299	9.5	14
2	1323	9.6	15
2	1324	9.6	16
2	1325	9.6	17
2	1331	9.7	16
2	1351	9.9	15
2	1375	10.1	14
2	1395	10.1	15
2	1396	10.1	16
2	1397	10.1	17
2	1419	10.3	16
2	1439	10.5	15
2	1463	10.6	16
2	1464	10.6	17
2	1465	10.6	18
2	1471	10.7	17
2	1491	10.9	16
2	1515	11.1	15
2	1535	11.1	16
2	1536	11.1	17
2	1537	11.1	18
2	1559	11.3	17
2	1579	11.5	16
2	1603	11.6	17
2	1604	11.6	18
2	1605	11.6	19
2	1611	11.7	18
2	1631	11.9	17
2	1643	12.1	16
2	1651	12.3	15
2	1659	12.5	14
2	1667	12.7	13
2	1675	12.9	12
2	1683	13.1	11
2	1691	13.3	10
2	1699	13.5	9
2	1707	13.7	8
2	1715	13.9	7
2	1723	14.1	6
2	1731	14.3	5
2	1739	14.5	4
2	1747	14.7	3
2	1755	14.9	2
2	1763	15.1	1
2	1771	15.3	0
3	0	0	0
3	34	0.1	1
3	35	0.1	2
3	36	0.1	3
3	82	0.6	4
3	83	0.6	5
3	84	0.6	6
3	116	1.1	5
3	138	1.1	6
3	139	1.1	7
3	140	1.1	8
3	160	1.3	7
3	180	1.5	6
3	206	1.6	7
3	207	1.6	8
3	208	1.6	9
3	212	1.7	8
3	232	1.9	7
3	256	2.1	6
3	278	2.1	7
3	279	2.1	8
3	280	2.1	9
3	300	2.3	8
3	320	2.5	7
3	346	2.6	8
3	347	2.6	9
3	348	2.6	10
3	352	2.7	9
3	372	2.9	8
3	396	3.1	7
3	418	3.1	8
3	419	3.1	9
3	420	3.1	10
3	440	3.3	9
3	460	3.5	8
3	486	3.6	9
3	487	3.6	10
3	488	3.6	11
3	492	3.7	10
3	512	3.9	9
3	536	4.1	8
3	558	4.1	9
3	559	4.1	10
3	560	4.1	11
3	580	4.3	10
3	600	4.5	9
3	626	4.6	10
3	627	4.6	11
3	628	4.6	12
3	632	4.7	11
3	652	4.9	10
3	676	5.1	9
3	698	5.1	10
3	699	5.1	11
3	700	5.1	12
3	720	5.3	11
3	740	5.5	10
3	766	5.6	11
3	767	5.6	12
3	768	5.6	13
3	772	5.7	12
3	792	5.9	11
3	816	6.1	10
3	838	6.1	11
3	839	6.1	12
3	840	6.1	13
3	860	6.3	12
3	880	6.5	11
3	906	6.6	12
3	907	6.6	13
3	908	6.6	14
3	912	6.7	13
3	932	6.9	12
3	956	7.1	11
3	978	7.1	12
3	979	7.1	13
3	980	7.1	14
3	1000	7.3	13
3	1020	7.5	12
3	1046	7.6	13
3	1047	7.6	14
3	1048	7.6	15
3	1052	7.7	14
3	1072	7.9	13
3	1096	8.1	12
3	1118	8.1	13
3	1119	8.1	14
3	1120	8.1	15
3	1140	8.3	14
3	1160	8.5	13
3	1186	8.6	14
3	1187	8.6	15
3	1188	8.6	16
3	1192	8.7	15
3	1212	8.9	14
3	1236	9.1	13
3	1258	9.1	14
3	1259	9.1	15
3	1260	9.1	16
3	1280	9.3	15
3	1300	9.5	14
3	1326	9.6	15
3	1327	9.6	16
3	1328	9.6	17
3	1332	9.7	16
3	1352	9.9	15
3	1376	10.1	14
3	1398	10.1	15
3	1399	10.1	16
3	1400	10.1	17
3	1420	10.3	16
3	1440	10.5	15
3	1466	10.6	16
3	1467	10.6	17
3	1468	10.6	18
3	1472	10.7	17
3	1492	10.9	16
3	1516	11.1	15
3	1538	11.1	16
3	1539	11.1	17
3	1540	11.1	18
3	1560	11.3	17
3	1580	11.5	16
3	1606	11.6	17
3	1607	11.6	18
3	1608	11.6	19
3	1612	11.7	18
3	1632	11.9	17
3	1644	12.1	16
3	1652	12.3	15
3	1660	12.5	14
3	1668	12.7	13
3	1676	12.9	12
3	1684	13.1	11
3	1692	13.3	10
3	1700	13.5	9
3	1708	13.7	8
3	1716	13.9	7
3	1724	14.1	6
3	1732	14.3	5
3	1740	14.5	4
3	1748	14.7	3
3	1756	14.9	2
3	1764	15.1	1
3	1772	15.3	0
4	113	1.1	1.1
4	157	1.3	1.3
4	177	1.5	1.5
4	209	1.7	1.7
4	229	1.9	1.9
4	253	2.1	2.1
4	297	2.3	2.3
4	317	2.5	2.5
4	349	2.7	2.7
4	369	2.9	2.9
4	393	3.1	3.1
4	437	3.3	3.3
4	457	3.5	3.5
4	489	3.7	3.7
4	509	3.9	3.9
4	533	4.1	4.1
4	577	4.3	4.3
4	597	4.5	4.5
4	629	4.7	4.7
4	649	4.9	4.9
4	673	5.1	5.1
4	717	5.3	5.3
4	737	5.5	5.5
4	769	5.7	5.7
4	789	5.9	5.9
4	813	6.1	6.1
4	857	6.3	6.3
4	877	6.5	6.5
4	909	6.7	6.7
4	929	6.9	6.9
4	953	7.1	7.1
4	997	7.3	7.3
4	1017	7.5	7.5
4	1049	7.7	7.7
4	1069	7.9	7.9
4	1093	8.1	8.1
4	1137	8.3	8.3
4	1157	8.5	8.5
4	1189	8.7	8.7
4	1209	8.9	8.9
4	1233	9.1	9.1
4	1277	9.3	9.3
4	1297	9.5	9.5
4	1329	9.7	9.7
4	1349	9.9	9.9
4	1373	10.1	10.1
4	1417	10.3	10.3
4	1437	10.5	10.5
4	1469	10.7	10.7
4	1489	10.9	10.9
4	1513	11.1	11.1
4	1557	11.3	11.3
4	1577	11.5	11.5
4	1609	11.7	11.7
4	1629	11.9	11.9
4	1641	12.1	12.1
4	1649	12.3	12.3
4	1657	12.5	12.5
4	1665	12.7	12.7
4	1673	12.9	12.9
4	1681	13.1	13.1
4	1689	13.3	13.3
4	1697	13.5	13.5
4	1705	13.7	13.7
4	1713	13.9	13.9
4	1721	14.1	14.1
4	1729	14.3	14.3
4	1737	14.5	14.5
4	1745	14.7	14.7
4	1753	14.9	14.9
4	1761	15.1	15.1
4	1769	15.3	15.3
5	114	1.1	1.1
5	158	1.3	1.3
5	178	1.5	1.5
5	210	1.7	1.7
5	230	1.9	1.9
5	254	2.1	2.1
5	298	2.3	2.3
5	318	2.5	2.5
5	350	2.7	2.7
5	370	2.9	2.9
5	394	3.1	3.1
5	438	3.3	3.3
5	458	3.5	3.5
5	490	3.7	3.7
5	510	3.9	3.9
5	534	4.1	4.1
5	578	4.3	4.3
5	598	4.5	4.5
5	630	4.7	4.7
5	650	4.9	4.9
5	674	5.1	5.1
5	718	5.3	5.3
5	738	5.5	5.5
5	770	5.7	5.7
5	790	5.9	5.9
5	814	6.1	6.1
5	858	6.3	6.3
5	878	6.5	6.5
5	910	6.7	6.7
5	930	6.9	6.9
5	954	7.1	7.1
5	998	7.3	7.3
5	1018	7.5	7.5
5	1050	7.7	7.7
5	1070	7.9	7.9
5	1094	8.1	8.1
5	1138	8.3	8.3
5	1158	8.5	8.5
5	1190	8.7	8.7
5	1210	8.9	8.9
5	1234	9.1	9.1
5	1278	9.3	9.3
5	1298	9.5	9.5
5	1330	9.7	9.7
5	1350	9.9	9.9
5	1374	10.1	10.1
5	1418	10.3	10.3
5	1438	10.5	10.5
5	1470	10.7	10.7
5	1490	10.9	10.9
5	1514	11.1	11.1
5	1558	11.3	11.3
5	1578	11.5	11.5
5	1610	11.7	11.7
5	1630	11.9	11.9
5	1642	12.1	12.1
5	1650	12.3	12.3
5	1658	12.5	12.5
5	1666	12.7	12.7
5	1674	12.9	12.9
5	1682	13.1	13.1
5	1690	13.3	13.3
5	1698	13.5	13.5
5	1706	13.7	13.7
5	1714	13.9	13.9
5	1722	14.1	14.1
5	1730	14.3	14.3
5	1738	14.5	14.5
5	1746	14.7	14.7
5	1754	14.9	14.9
5	1762	15.1	15.1
5	1770	15.3	15.3
6	115	1.1	1.1
6	159	1.3	1.3
6	179	1.5	1.5
6	211	1.7	1.7
6	231	1.9	1.9
6	255	2.1	2.1
6	299	2.3	2.3
6	319	2.5	2.5
6	351	2.7	2.7
6	371	2.9	2.9
6	395	3.1	3.1
6	439	3.3	3.3
6	459	3.5	3.5
6	491	3.7	3.7
6	511	3.9	3.9
6	535	4.1	4.1
6	579	4.3	4.3
6	599	4.5	4.5
6	631	4.7	4.7
6	651	4.9	4.9
6	675	5.1	5.1
6	719	5.3	5.3
6	739	5.5	5.5
6	771	5.7	5.7
6	791	5.9	5.9
6	815	6.1	6.1
6	859	6.3	6.3
6	879	6.5	6.5
6	911	6.7	6.7
6	931	6.9	6.9
6	955	7.1	7.1
6	999	7.3	7.3
6	1019	7.5	7.5
6	1051	7.7	7.7
6	1071	7.9	7.9
6	1095	8.1	8.1
6	1139	8.3	8.3
6	1159	8.5	8.5
6	1191	8.7	8.7
6	1211	8.9	8.9
6	1235	9.1	9.1
6	1279	9.3	9.3
6	1299	9.5	9.5
6	1331	9.7	9.7
6	1351	9.9	9.9
6	1375	10.1	10.1
6	1419	10.3	10.3
6	1439	10.5	10.5
6	1471	10.7	10.7
6	1491	10.9	10.9
6	1515	11.1	11.1
6	1559	11.3	11.3
6	1579	11.5	11.5
6	1611	11.7	11.7
6	1631	11.9	11.9
6	1643	12.1	12.1
6	1651	12.3	12.3
6	1659	12.5	12.5
6	1667	12.7	12.7
6	1675	12.9	12.9
6	1683	13.1	13.1
6	1691	13.3	13.3
6	1699	13.5	13.5
6	1707	13.7	13.7
6	1715	13.9	13.9
6	1723	14.1	14.1
6	1731	14.3	14.3
6	1739	14.5	14.5
6	1747	14.7	14.7
6	1755	14.9	14.9
6	1763	15.1	15.1
6	1771	15.3	15.3
7	116	1.1	1.1
7	160	1.3	1.3
7	180	1.5	1.5
7	212	1.7	1.7
7	232	1.9	1.9
7	256	2.1	2.1
7	300	2.3	2.3
7	320	2.5	2.5
7	352	2.7	2.7
7	372	2.9	2.9
7	396	3.1	3.1
7	440	3.3	3.3
7	460	3.5	3.5
7	492	3.7	3.7
7	512	3.9	3.9
7	536	4.1	4.1
7	580	4.3	4.3
7	600	4.5	4.5
7	632	4.7	4.7
7	652	4.9	4.9
7	676	5.1	5.1
7	720	5.3	5.3
7	740	5.5	5.5
7	772	5.7	5.7
7	792	5.9	5.9
7	816	6.1	6.1
7	860	6.3	6.3
7	880	6.5	6.5
7	912	6.7	6.7
7	932	6.9	6.9
7	956	7.1	7.1
7	1000	7.3	7.3
7	1020	7.5	7.5
7	1052	7.7	7.7
7	1072	7.9	7.9
7	1096	8.1	8.1
7	1140	8.3	8.3
7	1160	8.5	8.5
7	1192	8.7	8.7
7	1212	8.9	8.9
7	1236	9.1	9.1
7	1280	9.3	9.3
7	1300	9.5	9.5
7	1332	9.7	9.7
7	1352	9.9	9.9
7	1376	10.1	10.1
7	1420	10.3	10.3
7	1440	10.5	10.5
7	1472	10.7	10.7
7	1492	10.9	10.9
7	1516	11.1	11.1
7	1560	11.3	11.3
7	1580	11.5	11.5
7	1612	11.7	11.7
7	1632	11.9	11.9
7	1644	12.1	12.1
7	1652	12.3	12.3
7	1660	12.5	12.5
7	1668	12.7	12.7
7	1676	12.9	12.9
7	1684	13.1	13.1
7	1692	13.3	13.3
7	1700	13.5	13.5
7	1708	13.7	13.7
7	1716	13.9	13.9
7	1724	14.1	14.1
7	1732	14.3	14.3
7	1740	14.5	14.5
7	1748	14.7	14.7
7	1756	14.9	14.9
7	1764	15.1	15.1
7	1772	15.3	15.3
8	141	1.2	1
8	142	1.2	1
8	143	1.2	1
8	161	1.4	1
8	163	1.4	1
8	193	1.6	1
8	225	1.8	1
8	226	1.8	1
8	227	1.8	1
8	246	2	1
8	301	2.4	1
8	302	2.4	1
8	303	2.4	1
8	333	2.6	1
8	365	2.8	1
8	367	2.8	1
8	385	3	1
8	441	3.4	2
8	443	3.4	2
8	507	3.8	2
8	583	4.4	2
8	645	4.8	2
8	647	4.8	2
8	722	5.4	2
8	723	5.4	2
8	786	5.8	2
8	861	6.4	3
8	862	6.4	3
8	893	6.6	3
8	894	6.6	3
8	925	6.8	3
8	926	6.8	3
8	1001	7.4	3
8	1065	7.8	3
8	1141	8.4	3
8	1142	8.4	4
8	1144	8.4	4
8	1205	8.8	4
8	1281	9.4	4
8	1282	9.4	4
8	1345	9.8	4
8	1346	9.8	4
8	1421	10.4	4
8	1422	10.4	5
8	1424	10.4	5
8	1454	10.6	5
8	1485	10.8	5
8	1561	11.4	5
8	1625	11.8	5
8	1626	11.8	5
9	144	1.2	1
9	164	1.4	1
9	195	1.6	1
9	196	1.6	1
9	228	1.8	1
9	245	2	1
9	247	2	1
9	248	2	1
9	284	2.2	1
9	304	2.4	1
9	368	2.8	1
9	444	3.4	2
9	505	3.8	2
9	508	3.8	2
9	581	4.4	2
9	584	4.4	2
9	648	4.8	2
9	665	5	2
9	721	5.4	2
9	724	5.4	3
9	787	5.8	3
9	788	5.8	3
9	807	6	3
9	808	6	3
9	864	6.4	3
9	928	6.8	3
9	945	7	3
9	981	7.2	4
9	1004	7.4	4
9	1068	7.8	4
9	1208	8.8	4
9	1283	9.4	4
9	1284	9.4	4
9	1347	9.8	4
9	1348	9.8	4
9	1487	10.8	5
9	1488	10.8	5
9	1564	11.4	5
9	1593	11.6	5
9	1628	11.8	5
9	1633	12	5
10	162	1.4	1
10	194	1.6	1
10	281	2.2	1
10	282	2.2	1
10	283	2.2	1
10	334	2.6	2
10	335	2.6	2
10	336	2.6	2
10	366	2.8	2
10	386	3	2
10	387	3	2
10	388	3	2
10	421	3.2	2
10	422	3.2	2
10	423	3.2	2
10	424	3.2	2
10	442	3.4	2
10	473	3.6	2
10	474	3.6	2
10	475	3.6	2
10	476	3.6	2
10	506	3.8	2
10	525	4	2
10	526	4	2
10	527	4	3
10	528	4	3
10	561	4.2	3
10	562	4.2	3
10	563	4.2	3
10	564	4.2	3
10	582	4.4	3
10	613	4.6	3
10	614	4.6	3
10	615	4.6	3
10	616	4.6	3
10	646	4.8	3
10	666	5	3
10	667	5	3
10	668	5	3
10	701	5.2	3
10	702	5.2	3
10	703	5.2	3
10	704	5.2	3
10	753	5.6	3
10	754	5.6	3
10	755	5.6	3
10	756	5.6	3
10	785	5.8	3
10	805	6	3
10	806	6	4
10	841	6.2	4
10	842	6.2	4
10	843	6.2	4
10	844	6.2	4
10	863	6.4	4
10	895	6.6	4
10	896	6.6	4
10	927	6.8	4
10	946	7	4
10	947	7	4
10	948	7	4
10	982	7.2	4
10	983	7.2	4
10	984	7.2	4
10	1002	7.4	4
10	1003	7.4	4
10	1033	7.6	4
10	1034	7.6	4
10	1035	7.6	4
10	1036	7.6	4
10	1066	7.8	4
10	1067	7.8	4
10	1085	8	4
10	1086	8	5
10	1087	8	5
10	1088	8	5
10	1121	8.2	5
10	1122	8.2	5
10	1123	8.2	5
10	1124	8.2	5
10	1143	8.4	5
10	1173	8.6	5
10	1174	8.6	5
10	1175	8.6	5
10	1176	8.6	5
10	1206	8.8	5
10	1207	8.8	5
10	1225	9	5
10	1226	9	5
10	1227	9	5
10	1228	9	5
10	1261	9.2	5
10	1262	9.2	5
10	1263	9.2	5
10	1264	9.2	5
10	1313	9.6	5
10	1314	9.6	5
10	1315	9.6	5
10	1316	9.6	5
10	1365	10	6
10	1366	10	6
10	1367	10	6
10	1368	10	6
10	1401	10.2	6
10	1402	10.2	6
10	1403	10.2	6
10	1404	10.2	6
10	1423	10.4	6
10	1453	10.6	6
10	1455	10.6	6
10	1456	10.6	6
10	1486	10.8	6
10	1505	11	6
10	1506	11	6
10	1507	11	6
10	1508	11	6
10	1541	11.2	6
10	1542	11.2	6
10	1543	11.2	6
10	1544	11.2	6
10	1562	11.4	6
10	1563	11.4	6
10	1594	11.6	6
10	1595	11.6	6
10	1596	11.6	6
10	1627	11.8	7
10	1634	12	7
10	1635	12	7
10	1636	12	7
10	1645	12.2	7
10	1646	12.2	7
10	1647	12.2	7
10	1648	12.2	7
10	1653	12.4	7
10	1654	12.4	7
10	1655	12.4	7
10	1656	12.4	7
10	1661	12.6	7
10	1662	12.6	7
10	1663	12.6	7
10	1664	12.6	7
10	1669	12.8	7
10	1670	12.8	7
10	1671	12.8	7
10	1672	12.8	7
10	1677	13	7
10	1678	13	7
10	1679	13	7
10	1680	13	7
10	1685	13.2	7
10	1686	13.2	7
10	1687	13.2	7
10	1688	13.2	7
10	1693	13.4	8
10	1694	13.4	8
10	1695	13.4	8
10	1696	13.4	8
10	1701	13.6	8
10	1702	13.6	8
10	1703	13.6	8
10	1704	13.6	8
10	1709	13.8	8
10	1710	13.8	8
10	1711	13.8	8
10	1712	13.8	8
10	1717	14	8
10	1718	14	8
10	1719	14	8
10	1720	14	8
10	1725	14.2	8
10	1726	14.2	8
10	1727	14.2	8
10	1728	14.2	8
10	1733	14.4	8
10	1734	14.4	8
10	1735	14.4	8
10	1736	14.4	8
10	1741	14.6	8
10	1742	14.6	8
10	1743	14.6	8
10	1744	14.6	8
10	1749	14.8	8
10	1750	14.8	8
10	1751	14.8	9
10	1752	14.8	9
10	1757	15	9
10	1758	15	9
10	1759	15	9
10	1760	15	9
10	1765	15.2	9
10	1766	15.2	9
10	1767	15.2	9
10	1768	15.2	9
10	1773	15.4	9
10	1774	15.4	9
10	1775	15.4	9
10	1776	15.4	9

