version 2
run MicrogridNetwork-0-20180406-15:33:43-49568
attr configname MicrogridNetwork
attr datetime 20180406-15:33:43
attr experiment MicrogridNetwork
attr inifile omnetpp.ini
attr iterationvars ""
attr iterationvarsf ""
attr measurement ""
attr network MicrogridNetwork
attr processid 49568
attr repetition 0
attr replication #0
attr resultdir results
attr runnumber 0
attr seedset 0

vector 0 MicrogridNetwork.pico[0].queue queueLength:vector ETV
attr interpolationmode sample-hold
attr title "queue length, vector"
vector 1 MicrogridNetwork.pico[0].queue averageThroughput:vector ETV
attr interpolationmode sample-hold
attr title "average throughput, vector"
vector 2 MicrogridNetwork.pico[1].queue queueLength:vector ETV
attr interpolationmode sample-hold
attr title "queue length, vector"
vector 3 MicrogridNetwork.pico[1].queue averageThroughput:vector ETV
attr interpolationmode sample-hold
attr title "average throughput, vector"
vector 4 MicrogridNetwork.pico[2].queue queueLength:vector ETV
attr interpolationmode sample-hold
attr title "queue length, vector"
vector 5 MicrogridNetwork.pico[2].queue averageThroughput:vector ETV
attr interpolationmode sample-hold
attr title "average throughput, vector"
vector 6 MicrogridNetwork.pico[3].queue queueLength:vector ETV
attr interpolationmode sample-hold
attr title "queue length, vector"
vector 7 MicrogridNetwork.pico[3].queue averageThroughput:vector ETV
attr interpolationmode sample-hold
attr title "average throughput, vector"
vector 8 MicrogridNetwork.pico[0].queue queueingTime:vector ETV
attr interpolationmode none
attr title "queueing time at dequeue, vector"
attr unit s
vector 9 MicrogridNetwork.pico[1].queue queueingTime:vector ETV
attr interpolationmode none
attr title "queueing time at dequeue, vector"
attr unit s
vector 10 MicrogridNetwork.pico[2].queue queueingTime:vector ETV
attr interpolationmode none
attr title "queueing time at dequeue, vector"
attr unit s
vector 11 MicrogridNetwork.pico[3].queue queueingTime:vector ETV
attr interpolationmode none
attr title "queueing time at dequeue, vector"
attr unit s
vector 12 MicrogridNetwork.macro[0] timeSensitiveQueueMsgTime:vector ETV
attr interpolationmode sample-hold
attr title "timeSensitiveQueueMsgTime, vector"
vector 13 MicrogridNetwork.macro[0] timeMediumQueueMsgTime:vector ETV
attr interpolationmode sample-hold
attr title "timeMediumQueueMsgTime, vector"
vector 14 MicrogridNetwork.macro[0] timeTolerantQueueMsgTime:vector ETV
attr interpolationmode sample-hold
attr title "timeTolerantQueueMsgTime, vector"
0	0	0	0
0	29	0.1	1
0	30	0.1	2
0	31	0.1	3
0	77	0.6	4
0	78	0.6	5
0	79	0.6	6
0	117	1.1	5
0	133	1.1	6
0	134	1.1	7
0	135	1.1	8
0	161	1.3	7
0	181	1.5	6
0	201	1.6	7
0	202	1.6	8
0	203	1.6	9
0	213	1.7	8
0	233	1.9	7
0	257	2.1	6
0	273	2.1	7
0	274	2.1	8
0	275	2.1	9
0	301	2.3	8
0	321	2.5	7
0	341	2.6	8
0	342	2.6	9
0	343	2.6	10
0	353	2.7	9
0	373	2.9	8
0	397	3.1	7
0	413	3.1	8
0	414	3.1	9
0	415	3.1	10
0	441	3.3	9
0	461	3.5	8
0	481	3.6	9
0	482	3.6	10
0	483	3.6	11
0	493	3.7	10
0	513	3.9	9
0	537	4.1	8
0	553	4.1	9
0	554	4.1	10
0	555	4.1	11
0	581	4.3	10
0	601	4.5	9
0	621	4.6	10
0	622	4.6	11
0	623	4.6	12
0	633	4.7	11
0	653	4.9	10
0	677	5.1	9
0	693	5.1	10
0	694	5.1	11
0	695	5.1	12
0	721	5.3	11
0	741	5.5	10
0	761	5.6	11
0	762	5.6	12
0	763	5.6	13
0	773	5.7	12
0	793	5.9	11
0	817	6.1	10
0	833	6.1	11
0	834	6.1	12
0	835	6.1	13
0	861	6.3	12
0	881	6.5	11
0	901	6.6	12
0	902	6.6	13
0	903	6.6	14
0	913	6.7	13
0	933	6.9	12
0	957	7.1	11
0	973	7.1	12
0	974	7.1	13
0	975	7.1	14
0	1001	7.3	13
0	1021	7.5	12
0	1041	7.6	13
0	1042	7.6	14
0	1043	7.6	15
0	1053	7.7	14
0	1073	7.9	13
0	1097	8.1	12
0	1113	8.1	13
0	1114	8.1	14
0	1115	8.1	15
0	1141	8.3	14
0	1161	8.5	13
0	1181	8.6	14
0	1182	8.6	15
0	1183	8.6	16
0	1193	8.7	15
0	1213	8.9	14
0	1237	9.1	13
0	1253	9.1	14
0	1254	9.1	15
0	1255	9.1	16
0	1281	9.3	15
0	1301	9.5	14
0	1321	9.6	15
0	1322	9.6	16
0	1323	9.6	17
0	1333	9.7	16
0	1353	9.9	15
0	1377	10.1	14
0	1393	10.1	15
0	1394	10.1	16
0	1395	10.1	17
0	1421	10.3	16
0	1441	10.5	15
0	1461	10.6	16
0	1462	10.6	17
0	1463	10.6	18
0	1473	10.7	17
0	1493	10.9	16
0	1517	11.1	15
0	1533	11.1	16
0	1534	11.1	17
0	1535	11.1	18
0	1561	11.3	17
0	1581	11.5	16
0	1601	11.6	17
0	1602	11.6	18
0	1603	11.6	19
0	1613	11.7	18
0	1633	11.9	17
0	1645	12.1	16
0	1653	12.3	15
0	1661	12.5	14
0	1669	12.7	13
0	1677	12.9	12
0	1685	13.1	11
0	1693	13.3	10
0	1701	13.5	9
0	1709	13.7	8
0	1717	13.9	7
0	1725	14.1	6
0	1733	14.3	5
0	1741	14.5	4
0	1749	14.7	3
0	1757	14.9	2
0	1765	15.1	1
0	1773	15.3	0
1	0	0	0
2	0	0	0
2	32	0.1	1
2	33	0.1	2
2	34	0.1	3
2	80	0.6	4
2	81	0.6	5
2	82	0.6	6
2	118	1.1	5
2	136	1.1	6
2	137	1.1	7
2	138	1.1	8
2	162	1.3	7
2	182	1.5	6
2	204	1.6	7
2	205	1.6	8
2	206	1.6	9
2	214	1.7	8
2	234	1.9	7
2	258	2.1	6
2	276	2.1	7
2	277	2.1	8
2	278	2.1	9
2	302	2.3	8
2	322	2.5	7
2	344	2.6	8
2	345	2.6	9
2	346	2.6	10
2	354	2.7	9
2	374	2.9	8
2	398	3.1	7
2	416	3.1	8
2	417	3.1	9
2	418	3.1	10
2	442	3.3	9
2	462	3.5	8
2	484	3.6	9
2	485	3.6	10
2	486	3.6	11
2	494	3.7	10
2	514	3.9	9
2	538	4.1	8
2	556	4.1	9
2	557	4.1	10
2	558	4.1	11
2	582	4.3	10
2	602	4.5	9
2	624	4.6	10
2	625	4.6	11
2	626	4.6	12
2	634	4.7	11
2	654	4.9	10
2	678	5.1	9
2	696	5.1	10
2	697	5.1	11
2	698	5.1	12
2	722	5.3	11
2	742	5.5	10
2	764	5.6	11
2	765	5.6	12
2	766	5.6	13
2	774	5.7	12
2	794	5.9	11
2	818	6.1	10
2	836	6.1	11
2	837	6.1	12
2	838	6.1	13
2	862	6.3	12
2	882	6.5	11
2	904	6.6	12
2	905	6.6	13
2	906	6.6	14
2	914	6.7	13
2	934	6.9	12
2	958	7.1	11
2	976	7.1	12
2	977	7.1	13
2	978	7.1	14
2	1002	7.3	13
2	1022	7.5	12
2	1044	7.6	13
2	1045	7.6	14
2	1046	7.6	15
2	1054	7.7	14
2	1074	7.9	13
2	1098	8.1	12
2	1116	8.1	13
2	1117	8.1	14
2	1118	8.1	15
2	1142	8.3	14
2	1162	8.5	13
2	1184	8.6	14
2	1185	8.6	15
2	1186	8.6	16
2	1194	8.7	15
2	1214	8.9	14
2	1238	9.1	13
2	1256	9.1	14
2	1257	9.1	15
2	1258	9.1	16
2	1282	9.3	15
2	1302	9.5	14
2	1324	9.6	15
2	1325	9.6	16
2	1326	9.6	17
2	1334	9.7	16
2	1354	9.9	15
2	1378	10.1	14
2	1396	10.1	15
2	1397	10.1	16
2	1398	10.1	17
2	1422	10.3	16
2	1442	10.5	15
2	1464	10.6	16
2	1465	10.6	17
2	1466	10.6	18
2	1474	10.7	17
2	1494	10.9	16
2	1518	11.1	15
2	1536	11.1	16
2	1537	11.1	17
2	1538	11.1	18
2	1562	11.3	17
2	1582	11.5	16
2	1604	11.6	17
2	1605	11.6	18
2	1606	11.6	19
2	1614	11.7	18
2	1634	11.9	17
2	1646	12.1	16
2	1654	12.3	15
2	1662	12.5	14
2	1670	12.7	13
2	1678	12.9	12
2	1686	13.1	11
2	1694	13.3	10
2	1702	13.5	9
2	1710	13.7	8
2	1718	13.9	7
2	1726	14.1	6
2	1734	14.3	5
2	1742	14.5	4
2	1750	14.7	3
2	1758	14.9	2
2	1766	15.1	1
2	1774	15.3	0
3	0	0	0
4	0	0	0
4	35	0.1	1
4	36	0.1	2
4	37	0.1	3
4	83	0.6	4
4	84	0.6	5
4	85	0.6	6
4	119	1.1	5
4	139	1.1	6
4	140	1.1	7
4	141	1.1	8
4	163	1.3	7
4	183	1.5	6
4	207	1.6	7
4	208	1.6	8
4	209	1.6	9
4	215	1.7	8
4	235	1.9	7
4	259	2.1	6
4	279	2.1	7
4	280	2.1	8
4	281	2.1	9
4	303	2.3	8
4	323	2.5	7
4	347	2.6	8
4	348	2.6	9
4	349	2.6	10
4	355	2.7	9
4	375	2.9	8
4	399	3.1	7
4	419	3.1	8
4	420	3.1	9
4	421	3.1	10
4	443	3.3	9
4	463	3.5	8
4	487	3.6	9
4	488	3.6	10
4	489	3.6	11
4	495	3.7	10
4	515	3.9	9
4	539	4.1	8
4	559	4.1	9
4	560	4.1	10
4	561	4.1	11
4	583	4.3	10
4	603	4.5	9
4	627	4.6	10
4	628	4.6	11
4	629	4.6	12
4	635	4.7	11
4	655	4.9	10
4	679	5.1	9
4	699	5.1	10
4	700	5.1	11
4	701	5.1	12
4	723	5.3	11
4	743	5.5	10
4	767	5.6	11
4	768	5.6	12
4	769	5.6	13
4	775	5.7	12
4	795	5.9	11
4	819	6.1	10
4	839	6.1	11
4	840	6.1	12
4	841	6.1	13
4	863	6.3	12
4	883	6.5	11
4	907	6.6	12
4	908	6.6	13
4	909	6.6	14
4	915	6.7	13
4	935	6.9	12
4	959	7.1	11
4	979	7.1	12
4	980	7.1	13
4	981	7.1	14
4	1003	7.3	13
4	1023	7.5	12
4	1047	7.6	13
4	1048	7.6	14
4	1049	7.6	15
4	1055	7.7	14
4	1075	7.9	13
4	1099	8.1	12
4	1119	8.1	13
4	1120	8.1	14
4	1121	8.1	15
4	1143	8.3	14
4	1163	8.5	13
4	1187	8.6	14
4	1188	8.6	15
4	1189	8.6	16
4	1195	8.7	15
4	1215	8.9	14
4	1239	9.1	13
4	1259	9.1	14
4	1260	9.1	15
4	1261	9.1	16
4	1283	9.3	15
4	1303	9.5	14
4	1327	9.6	15
4	1328	9.6	16
4	1329	9.6	17
4	1335	9.7	16
4	1355	9.9	15
4	1379	10.1	14
4	1399	10.1	15
4	1400	10.1	16
4	1401	10.1	17
4	1423	10.3	16
4	1443	10.5	15
4	1467	10.6	16
4	1468	10.6	17
4	1469	10.6	18
4	1475	10.7	17
4	1495	10.9	16
4	1519	11.1	15
4	1539	11.1	16
4	1540	11.1	17
4	1541	11.1	18
4	1563	11.3	17
4	1583	11.5	16
4	1607	11.6	17
4	1608	11.6	18
4	1609	11.6	19
4	1615	11.7	18
4	1635	11.9	17
4	1647	12.1	16
4	1655	12.3	15
4	1663	12.5	14
4	1671	12.7	13
4	1679	12.9	12
4	1687	13.1	11
4	1695	13.3	10
4	1703	13.5	9
4	1711	13.7	8
4	1719	13.9	7
4	1727	14.1	6
4	1735	14.3	5
4	1743	14.5	4
4	1751	14.7	3
4	1759	14.9	2
4	1767	15.1	1
4	1775	15.3	0
5	0	0	0
6	0	0	0
6	38	0.1	1
6	39	0.1	2
6	40	0.1	3
6	86	0.6	4
6	87	0.6	5
6	88	0.6	6
6	120	1.1	5
6	142	1.1	6
6	143	1.1	7
6	144	1.1	8
6	164	1.3	7
6	184	1.5	6
6	210	1.6	7
6	211	1.6	8
6	212	1.6	9
6	216	1.7	8
6	236	1.9	7
6	260	2.1	6
6	282	2.1	7
6	283	2.1	8
6	284	2.1	9
6	304	2.3	8
6	324	2.5	7
6	350	2.6	8
6	351	2.6	9
6	352	2.6	10
6	356	2.7	9
6	376	2.9	8
6	400	3.1	7
6	422	3.1	8
6	423	3.1	9
6	424	3.1	10
6	444	3.3	9
6	464	3.5	8
6	490	3.6	9
6	491	3.6	10
6	492	3.6	11
6	496	3.7	10
6	516	3.9	9
6	540	4.1	8
6	562	4.1	9
6	563	4.1	10
6	564	4.1	11
6	584	4.3	10
6	604	4.5	9
6	630	4.6	10
6	631	4.6	11
6	632	4.6	12
6	636	4.7	11
6	656	4.9	10
6	680	5.1	9
6	702	5.1	10
6	703	5.1	11
6	704	5.1	12
6	724	5.3	11
6	744	5.5	10
6	770	5.6	11
6	771	5.6	12
6	772	5.6	13
6	776	5.7	12
6	796	5.9	11
6	820	6.1	10
6	842	6.1	11
6	843	6.1	12
6	844	6.1	13
6	864	6.3	12
6	884	6.5	11
6	910	6.6	12
6	911	6.6	13
6	912	6.6	14
6	916	6.7	13
6	936	6.9	12
6	960	7.1	11
6	982	7.1	12
6	983	7.1	13
6	984	7.1	14
6	1004	7.3	13
6	1024	7.5	12
6	1050	7.6	13
6	1051	7.6	14
6	1052	7.6	15
6	1056	7.7	14
6	1076	7.9	13
6	1100	8.1	12
6	1122	8.1	13
6	1123	8.1	14
6	1124	8.1	15
6	1144	8.3	14
6	1164	8.5	13
6	1190	8.6	14
6	1191	8.6	15
6	1192	8.6	16
6	1196	8.7	15
6	1216	8.9	14
6	1240	9.1	13
6	1262	9.1	14
6	1263	9.1	15
6	1264	9.1	16
6	1284	9.3	15
6	1304	9.5	14
6	1330	9.6	15
6	1331	9.6	16
6	1332	9.6	17
6	1336	9.7	16
6	1356	9.9	15
6	1380	10.1	14
6	1402	10.1	15
6	1403	10.1	16
6	1404	10.1	17
6	1424	10.3	16
6	1444	10.5	15
6	1470	10.6	16
6	1471	10.6	17
6	1472	10.6	18
6	1476	10.7	17
6	1496	10.9	16
6	1520	11.1	15
6	1542	11.1	16
6	1543	11.1	17
6	1544	11.1	18
6	1564	11.3	17
6	1584	11.5	16
6	1610	11.6	17
6	1611	11.6	18
6	1612	11.6	19
6	1616	11.7	18
6	1636	11.9	17
6	1648	12.1	16
6	1656	12.3	15
6	1664	12.5	14
6	1672	12.7	13
6	1680	12.9	12
6	1688	13.1	11
6	1696	13.3	10
6	1704	13.5	9
6	1712	13.7	8
6	1720	13.9	7
6	1728	14.1	6
6	1736	14.3	5
6	1744	14.5	4
6	1752	14.7	3
6	1760	14.9	2
6	1768	15.1	1
6	1776	15.3	0
7	0	0	0
8	117	1.1	1.1
8	161	1.3	1.3
8	181	1.5	1.5
8	213	1.7	1.7
8	233	1.9	1.9
8	257	2.1	2.1
8	301	2.3	2.3
8	321	2.5	2.5
8	353	2.7	2.7
8	373	2.9	2.9
8	397	3.1	3.1
8	441	3.3	3.3
8	461	3.5	3.5
8	493	3.7	3.7
8	513	3.9	3.9
8	537	4.1	4.1
8	581	4.3	4.3
8	601	4.5	4.5
8	633	4.7	4.7
8	653	4.9	4.9
8	677	5.1	5.1
8	721	5.3	5.3
8	741	5.5	5.5
8	773	5.7	5.7
8	793	5.9	5.9
8	817	6.1	6.1
8	861	6.3	6.3
8	881	6.5	6.5
8	913	6.7	6.7
8	933	6.9	6.9
8	957	7.1	7.1
8	1001	7.3	7.3
8	1021	7.5	7.5
8	1053	7.7	7.7
8	1073	7.9	7.9
8	1097	8.1	8.1
8	1141	8.3	8.3
8	1161	8.5	8.5
8	1193	8.7	8.7
8	1213	8.9	8.9
8	1237	9.1	9.1
8	1281	9.3	9.3
8	1301	9.5	9.5
8	1333	9.7	9.7
8	1353	9.9	9.9
8	1377	10.1	10.1
8	1421	10.3	10.3
8	1441	10.5	10.5
8	1473	10.7	10.7
8	1493	10.9	10.9
8	1517	11.1	11.1
8	1561	11.3	11.3
8	1581	11.5	11.5
8	1613	11.7	11.7
8	1633	11.9	11.9
8	1645	12.1	12.1
8	1653	12.3	12.3
8	1661	12.5	12.5
8	1669	12.7	12.7
8	1677	12.9	12.9
8	1685	13.1	13.1
8	1693	13.3	13.3
8	1701	13.5	13.5
8	1709	13.7	13.7
8	1717	13.9	13.9
8	1725	14.1	14.1
8	1733	14.3	14.3
8	1741	14.5	14.5
8	1749	14.7	14.7
8	1757	14.9	14.9
8	1765	15.1	15.1
8	1773	15.3	15.3
9	118	1.1	1.1
9	162	1.3	1.3
9	182	1.5	1.5
9	214	1.7	1.7
9	234	1.9	1.9
9	258	2.1	2.1
9	302	2.3	2.3
9	322	2.5	2.5
9	354	2.7	2.7
9	374	2.9	2.9
9	398	3.1	3.1
9	442	3.3	3.3
9	462	3.5	3.5
9	494	3.7	3.7
9	514	3.9	3.9
9	538	4.1	4.1
9	582	4.3	4.3
9	602	4.5	4.5
9	634	4.7	4.7
9	654	4.9	4.9
9	678	5.1	5.1
9	722	5.3	5.3
9	742	5.5	5.5
9	774	5.7	5.7
9	794	5.9	5.9
9	818	6.1	6.1
9	862	6.3	6.3
9	882	6.5	6.5
9	914	6.7	6.7
9	934	6.9	6.9
9	958	7.1	7.1
9	1002	7.3	7.3
9	1022	7.5	7.5
9	1054	7.7	7.7
9	1074	7.9	7.9
9	1098	8.1	8.1
9	1142	8.3	8.3
9	1162	8.5	8.5
9	1194	8.7	8.7
9	1214	8.9	8.9
9	1238	9.1	9.1
9	1282	9.3	9.3
9	1302	9.5	9.5
9	1334	9.7	9.7
9	1354	9.9	9.9
9	1378	10.1	10.1
9	1422	10.3	10.3
9	1442	10.5	10.5
9	1474	10.7	10.7
9	1494	10.9	10.9
9	1518	11.1	11.1
9	1562	11.3	11.3
9	1582	11.5	11.5
9	1614	11.7	11.7
9	1634	11.9	11.9
9	1646	12.1	12.1
9	1654	12.3	12.3
9	1662	12.5	12.5
9	1670	12.7	12.7
9	1678	12.9	12.9
9	1686	13.1	13.1
9	1694	13.3	13.3
9	1702	13.5	13.5
9	1710	13.7	13.7
9	1718	13.9	13.9
9	1726	14.1	14.1
9	1734	14.3	14.3
9	1742	14.5	14.5
9	1750	14.7	14.7
9	1758	14.9	14.9
9	1766	15.1	15.1
9	1774	15.3	15.3
10	119	1.1	1.1
10	163	1.3	1.3
10	183	1.5	1.5
10	215	1.7	1.7
10	235	1.9	1.9
10	259	2.1	2.1
10	303	2.3	2.3
10	323	2.5	2.5
10	355	2.7	2.7
10	375	2.9	2.9
10	399	3.1	3.1
10	443	3.3	3.3
10	463	3.5	3.5
10	495	3.7	3.7
10	515	3.9	3.9
10	539	4.1	4.1
10	583	4.3	4.3
10	603	4.5	4.5
10	635	4.7	4.7
10	655	4.9	4.9
10	679	5.1	5.1
10	723	5.3	5.3
10	743	5.5	5.5
10	775	5.7	5.7
10	795	5.9	5.9
10	819	6.1	6.1
10	863	6.3	6.3
10	883	6.5	6.5
10	915	6.7	6.7
10	935	6.9	6.9
10	959	7.1	7.1
10	1003	7.3	7.3
10	1023	7.5	7.5
10	1055	7.7	7.7
10	1075	7.9	7.9
10	1099	8.1	8.1
10	1143	8.3	8.3
10	1163	8.5	8.5
10	1195	8.7	8.7
10	1215	8.9	8.9
10	1239	9.1	9.1
10	1283	9.3	9.3
10	1303	9.5	9.5
10	1335	9.7	9.7
10	1355	9.9	9.9
10	1379	10.1	10.1
10	1423	10.3	10.3
10	1443	10.5	10.5
10	1475	10.7	10.7
10	1495	10.9	10.9
10	1519	11.1	11.1
10	1563	11.3	11.3
10	1583	11.5	11.5
10	1615	11.7	11.7
10	1635	11.9	11.9
10	1647	12.1	12.1
10	1655	12.3	12.3
10	1663	12.5	12.5
10	1671	12.7	12.7
10	1679	12.9	12.9
10	1687	13.1	13.1
10	1695	13.3	13.3
10	1703	13.5	13.5
10	1711	13.7	13.7
10	1719	13.9	13.9
10	1727	14.1	14.1
10	1735	14.3	14.3
10	1743	14.5	14.5
10	1751	14.7	14.7
10	1759	14.9	14.9
10	1767	15.1	15.1
10	1775	15.3	15.3
11	120	1.1	1.1
11	164	1.3	1.3
11	184	1.5	1.5
11	216	1.7	1.7
11	236	1.9	1.9
11	260	2.1	2.1
11	304	2.3	2.3
11	324	2.5	2.5
11	356	2.7	2.7
11	376	2.9	2.9
11	400	3.1	3.1
11	444	3.3	3.3
11	464	3.5	3.5
11	496	3.7	3.7
11	516	3.9	3.9
11	540	4.1	4.1
11	584	4.3	4.3
11	604	4.5	4.5
11	636	4.7	4.7
11	656	4.9	4.9
11	680	5.1	5.1
11	724	5.3	5.3
11	744	5.5	5.5
11	776	5.7	5.7
11	796	5.9	5.9
11	820	6.1	6.1
11	864	6.3	6.3
11	884	6.5	6.5
11	916	6.7	6.7
11	936	6.9	6.9
11	960	7.1	7.1
11	1004	7.3	7.3
11	1024	7.5	7.5
11	1056	7.7	7.7
11	1076	7.9	7.9
11	1100	8.1	8.1
11	1144	8.3	8.3
11	1164	8.5	8.5
11	1196	8.7	8.7
11	1216	8.9	8.9
11	1240	9.1	9.1
11	1284	9.3	9.3
11	1304	9.5	9.5
11	1336	9.7	9.7
11	1356	9.9	9.9
11	1380	10.1	10.1
11	1424	10.3	10.3
11	1444	10.5	10.5
11	1476	10.7	10.7
11	1496	10.9	10.9
11	1520	11.1	11.1
11	1564	11.3	11.3
11	1584	11.5	11.5
11	1616	11.7	11.7
11	1636	11.9	11.9
11	1648	12.1	12.1
11	1656	12.3	12.3
11	1664	12.5	12.5
11	1672	12.7	12.7
11	1680	12.9	12.9
11	1688	13.1	13.1
11	1696	13.3	13.3
11	1704	13.5	13.5
11	1712	13.7	13.7
11	1720	13.9	13.9
11	1728	14.1	14.1
11	1736	14.3	14.3
11	1744	14.5	14.5
11	1752	14.7	14.7
11	1760	14.9	14.9
11	1768	15.1	15.1
11	1776	15.3	15.3
12	145	1.2	1
12	146	1.2	1
12	147	1.2	1
12	165	1.4	1
12	167	1.4	1
12	197	1.6	1
12	229	1.8	1
12	230	1.8	1
12	231	1.8	1
12	250	2	1
12	305	2.4	1
12	306	2.4	1
12	307	2.4	1
12	337	2.6	1
12	369	2.8	1
12	371	2.8	1
12	389	3	1
12	445	3.4	2
12	447	3.4	2
12	511	3.8	2
12	587	4.4	2
12	649	4.8	2
12	651	4.8	2
12	726	5.4	2
12	727	5.4	2
12	790	5.8	2
12	865	6.4	3
12	866	6.4	3
12	897	6.6	3
12	898	6.6	3
12	929	6.8	3
12	930	6.8	3
12	1005	7.4	3
12	1069	7.8	3
12	1145	8.4	3
12	1146	8.4	4
12	1148	8.4	4
12	1209	8.8	4
12	1285	9.4	4
12	1286	9.4	4
12	1349	9.8	4
12	1350	9.8	4
12	1425	10.4	4
12	1426	10.4	5
12	1428	10.4	5
12	1458	10.6	5
12	1489	10.8	5
12	1565	11.4	5
12	1629	11.8	5
12	1630	11.8	5
13	148	1.2	1
13	168	1.4	1
13	199	1.6	1
13	200	1.6	1
13	232	1.8	1
13	249	2	1
13	251	2	1
13	252	2	1
13	288	2.2	1
13	308	2.4	1
13	372	2.8	1
13	448	3.4	2
13	509	3.8	2
13	512	3.8	2
13	585	4.4	2
13	588	4.4	2
13	652	4.8	2
13	669	5	2
13	725	5.4	2
13	728	5.4	3
13	791	5.8	3
13	792	5.8	3
13	811	6	3
13	812	6	3
13	868	6.4	3
13	932	6.8	3
13	949	7	3
13	985	7.2	4
13	1008	7.4	4
13	1072	7.8	4
13	1212	8.8	4
13	1287	9.4	4
13	1288	9.4	4
13	1351	9.8	4
13	1352	9.8	4
13	1491	10.8	5
13	1492	10.8	5
13	1568	11.4	5
13	1597	11.6	5
13	1632	11.8	5
13	1637	12	5
14	166	1.4	1
14	198	1.6	1
14	285	2.2	1
14	286	2.2	1
14	287	2.2	1
14	338	2.6	2
14	339	2.6	2
14	340	2.6	2
14	370	2.8	2
14	390	3	2
14	391	3	2
14	392	3	2
14	425	3.2	2
14	426	3.2	2
14	427	3.2	2
14	428	3.2	2
14	446	3.4	2
14	477	3.6	2
14	478	3.6	2
14	479	3.6	2
14	480	3.6	2
14	510	3.8	2
14	529	4	2
14	530	4	2
14	531	4	3
14	532	4	3
14	565	4.2	3
14	566	4.2	3
14	567	4.2	3
14	568	4.2	3
14	586	4.4	3
14	617	4.6	3
14	618	4.6	3
14	619	4.6	3
14	620	4.6	3
14	650	4.8	3
14	670	5	3
14	671	5	3
14	672	5	3
14	705	5.2	3
14	706	5.2	3
14	707	5.2	3
14	708	5.2	3
14	757	5.6	3
14	758	5.6	3
14	759	5.6	3
14	760	5.6	3
14	789	5.8	3
14	809	6	3
14	810	6	4
14	845	6.2	4
14	846	6.2	4
14	847	6.2	4
14	848	6.2	4
14	867	6.4	4
14	899	6.6	4
14	900	6.6	4
14	931	6.8	4
14	950	7	4
14	951	7	4
14	952	7	4
14	986	7.2	4
14	987	7.2	4
14	988	7.2	4
14	1006	7.4	4
14	1007	7.4	4
14	1037	7.6	4
14	1038	7.6	4
14	1039	7.6	4
14	1040	7.6	4
14	1070	7.8	4
14	1071	7.8	4
14	1089	8	4
14	1090	8	5
14	1091	8	5
14	1092	8	5
14	1125	8.2	5
14	1126	8.2	5
14	1127	8.2	5
14	1128	8.2	5
14	1147	8.4	5
14	1177	8.6	5
14	1178	8.6	5
14	1179	8.6	5
14	1180	8.6	5
14	1210	8.8	5
14	1211	8.8	5
14	1229	9	5
14	1230	9	5
14	1231	9	5
14	1232	9	5
14	1265	9.2	5
14	1266	9.2	5
14	1267	9.2	5
14	1268	9.2	5
14	1317	9.6	5
14	1318	9.6	5
14	1319	9.6	5
14	1320	9.6	5
14	1369	10	6
14	1370	10	6
14	1371	10	6
14	1372	10	6
14	1405	10.2	6
14	1406	10.2	6
14	1407	10.2	6
14	1408	10.2	6
14	1427	10.4	6
14	1457	10.6	6
14	1459	10.6	6
14	1460	10.6	6
14	1490	10.8	6
14	1509	11	6
14	1510	11	6
14	1511	11	6
14	1512	11	6
14	1545	11.2	6
14	1546	11.2	6
14	1547	11.2	6
14	1548	11.2	6
14	1566	11.4	6
14	1567	11.4	6
14	1598	11.6	6
14	1599	11.6	6
14	1600	11.6	6
14	1631	11.8	7
14	1638	12	7
14	1639	12	7
14	1640	12	7
14	1649	12.2	7
14	1650	12.2	7
14	1651	12.2	7
14	1652	12.2	7
14	1657	12.4	7
14	1658	12.4	7
14	1659	12.4	7
14	1660	12.4	7
14	1665	12.6	7
14	1666	12.6	7
14	1667	12.6	7
14	1668	12.6	7
14	1673	12.8	7
14	1674	12.8	7
14	1675	12.8	7
14	1676	12.8	7
14	1681	13	7
14	1682	13	7
14	1683	13	7
14	1684	13	7
14	1689	13.2	7
14	1690	13.2	7
14	1691	13.2	7
14	1692	13.2	7
14	1697	13.4	8
14	1698	13.4	8
14	1699	13.4	8
14	1700	13.4	8
14	1705	13.6	8
14	1706	13.6	8
14	1707	13.6	8
14	1708	13.6	8
14	1713	13.8	8
14	1714	13.8	8
14	1715	13.8	8
14	1716	13.8	8
14	1721	14	8
14	1722	14	8
14	1723	14	8
14	1724	14	8
14	1729	14.2	8
14	1730	14.2	8
14	1731	14.2	8
14	1732	14.2	8
14	1737	14.4	8
14	1738	14.4	8
14	1739	14.4	8
14	1740	14.4	8
14	1745	14.6	8
14	1746	14.6	8
14	1747	14.6	8
14	1748	14.6	8
14	1753	14.8	8
14	1754	14.8	8
14	1755	14.8	9
14	1756	14.8	9
14	1761	15	9
14	1762	15	9
14	1763	15	9
14	1764	15	9
14	1769	15.2	9
14	1770	15.2	9
14	1771	15.2	9
14	1772	15.2	9
14	1777	15.4	9
14	1778	15.4	9
14	1779	15.4	9
14	1780	15.4	9

