version 2
run MicrogridNetwork-0-20180306-15:51:04-11338
attr configname MicrogridNetwork
attr datetime 20180306-15:51:04
attr experiment MicrogridNetwork
attr inifile omnetpp.ini
attr iterationvars ""
attr iterationvarsf ""
attr measurement ""
attr network MicrogridNetwork
attr processid 11338
attr repetition 0
attr replication #0
attr resultdir results
attr runnumber 0
attr seedset 0

vector 0 MicrogridNetwork.pico[0].queue queueLength:vector ETV
attr interpolationmode sample-hold
attr title "queue length, vector"
vector 1 MicrogridNetwork.pico[1].queue queueLength:vector ETV
attr interpolationmode sample-hold
attr title "queue length, vector"
vector 2 MicrogridNetwork.pico[2].queue queueLength:vector ETV
attr interpolationmode sample-hold
attr title "queue length, vector"
vector 3 MicrogridNetwork.pico[3].queue queueLength:vector ETV
attr interpolationmode sample-hold
attr title "queue length, vector"
vector 4 MicrogridNetwork.pico[0].queue queueingTime:vector ETV
attr interpolationmode none
attr title "queueing time at dequeue, vector"
attr unit s
vector 5 MicrogridNetwork.pico[1].queue queueingTime:vector ETV
attr interpolationmode none
attr title "queueing time at dequeue, vector"
attr unit s
vector 6 MicrogridNetwork.pico[2].queue queueingTime:vector ETV
attr interpolationmode none
attr title "queueing time at dequeue, vector"
attr unit s
vector 7 MicrogridNetwork.pico[3].queue queueingTime:vector ETV
attr interpolationmode none
attr title "queueing time at dequeue, vector"
attr unit s
0	0	0	0
0	25	0.1	1
0	26	0.1	2
0	27	0.1	3
0	73	0.6	4
0	74	0.6	5
0	75	0.6	6
0	109	1.1	7
0	110	1.1	8
0	111	1.1	9
0	145	1.6	10
0	146	1.6	11
0	147	1.6	12
0	169	2.1	11
0	185	2.1	12
0	186	2.1	13
0	187	2.1	14
0	201	2.3	13
0	221	2.5	12
0	241	2.6	13
0	242	2.6	14
0	243	2.6	15
0	253	2.7	14
0	261	2.9	13
0	285	3.1	12
0	301	3.1	13
0	302	3.1	14
0	303	3.1	15
0	329	3.3	14
0	349	3.5	13
0	369	3.6	14
0	370	3.6	15
0	371	3.6	16
0	381	3.7	15
0	389	3.9	14
0	409	4.1	13
0	425	4.1	14
0	426	4.1	15
0	427	4.1	16
0	441	4.3	15
0	461	4.5	14
0	481	4.6	15
0	482	4.6	16
0	483	4.6	17
0	493	4.7	16
0	501	4.9	15
0	521	5.1	14
0	537	5.1	15
0	538	5.1	16
0	539	5.1	17
0	553	5.3	16
0	573	5.5	15
0	593	5.6	16
0	594	5.6	17
0	595	5.6	18
0	605	5.7	17
0	613	5.9	16
0	637	6.1	15
0	653	6.1	16
0	654	6.1	17
0	655	6.1	18
0	681	6.3	17
0	701	6.5	16
0	721	6.6	17
0	722	6.6	18
0	723	6.6	19
0	733	6.7	18
0	741	6.9	17
0	761	7.1	16
0	777	7.1	17
0	778	7.1	18
0	779	7.1	19
0	793	7.3	18
0	813	7.5	17
0	833	7.6	18
0	834	7.6	19
0	835	7.6	20
0	845	7.7	19
0	853	7.9	18
0	873	8.1	17
0	889	8.1	18
0	890	8.1	19
0	891	8.1	20
0	905	8.3	19
0	925	8.5	18
0	945	8.6	19
0	946	8.6	20
0	947	8.6	21
0	957	8.7	20
0	965	8.9	19
0	989	9.1	18
0	1005	9.1	19
0	1006	9.1	20
0	1007	9.1	21
0	1033	9.3	20
0	1053	9.5	19
0	1073	9.6	20
0	1074	9.6	21
0	1075	9.6	22
0	1085	9.7	21
0	1093	9.9	20
0	1113	10.1	19
0	1129	10.1	20
0	1130	10.1	21
0	1131	10.1	22
0	1145	10.3	21
0	1165	10.5	20
0	1185	10.6	21
0	1186	10.6	22
0	1187	10.6	23
0	1197	10.7	22
0	1205	10.9	21
0	1225	11.1	20
0	1241	11.1	21
0	1242	11.1	22
0	1243	11.1	23
0	1257	11.3	22
0	1277	11.5	21
0	1297	11.6	22
0	1298	11.6	23
0	1299	11.6	24
0	1309	11.7	23
0	1317	11.9	22
0	1329	12.1	21
0	1337	12.3	20
0	1345	12.5	19
0	1353	12.7	18
0	1361	12.9	17
0	1369	13.1	16
0	1377	13.3	15
0	1385	13.5	14
0	1393	13.7	13
0	1401	13.9	12
0	1409	14.1	11
0	1417	14.3	10
0	1425	14.5	9
0	1433	14.7	8
0	1441	14.9	7
0	1449	15.1	6
0	1457	15.3	5
0	1465	15.5	4
0	1473	15.7	3
0	1481	15.9	2
0	1489	16.1	1
0	1497	16.3	0
1	0	0	0
1	28	0.1	1
1	29	0.1	2
1	30	0.1	3
1	76	0.6	4
1	77	0.6	5
1	78	0.6	6
1	112	1.1	7
1	113	1.1	8
1	114	1.1	9
1	148	1.6	10
1	149	1.6	11
1	150	1.6	12
1	170	2.1	11
1	188	2.1	12
1	189	2.1	13
1	190	2.1	14
1	202	2.3	13
1	222	2.5	12
1	244	2.6	13
1	245	2.6	14
1	246	2.6	15
1	254	2.7	14
1	262	2.9	13
1	286	3.1	12
1	304	3.1	13
1	305	3.1	14
1	306	3.1	15
1	330	3.3	14
1	350	3.5	13
1	372	3.6	14
1	373	3.6	15
1	374	3.6	16
1	382	3.7	15
1	390	3.9	14
1	410	4.1	13
1	428	4.1	14
1	429	4.1	15
1	430	4.1	16
1	442	4.3	15
1	462	4.5	14
1	484	4.6	15
1	485	4.6	16
1	486	4.6	17
1	494	4.7	16
1	502	4.9	15
1	522	5.1	14
1	540	5.1	15
1	541	5.1	16
1	542	5.1	17
1	554	5.3	16
1	574	5.5	15
1	596	5.6	16
1	597	5.6	17
1	598	5.6	18
1	606	5.7	17
1	614	5.9	16
1	638	6.1	15
1	656	6.1	16
1	657	6.1	17
1	658	6.1	18
1	682	6.3	17
1	702	6.5	16
1	724	6.6	17
1	725	6.6	18
1	726	6.6	19
1	734	6.7	18
1	742	6.9	17
1	762	7.1	16
1	780	7.1	17
1	781	7.1	18
1	782	7.1	19
1	794	7.3	18
1	814	7.5	17
1	836	7.6	18
1	837	7.6	19
1	838	7.6	20
1	846	7.7	19
1	854	7.9	18
1	874	8.1	17
1	892	8.1	18
1	893	8.1	19
1	894	8.1	20
1	906	8.3	19
1	926	8.5	18
1	948	8.6	19
1	949	8.6	20
1	950	8.6	21
1	958	8.7	20
1	966	8.9	19
1	990	9.1	18
1	1008	9.1	19
1	1009	9.1	20
1	1010	9.1	21
1	1034	9.3	20
1	1054	9.5	19
1	1076	9.6	20
1	1077	9.6	21
1	1078	9.6	22
1	1086	9.7	21
1	1094	9.9	20
1	1114	10.1	19
1	1132	10.1	20
1	1133	10.1	21
1	1134	10.1	22
1	1146	10.3	21
1	1166	10.5	20
1	1188	10.6	21
1	1189	10.6	22
1	1190	10.6	23
1	1198	10.7	22
1	1206	10.9	21
1	1226	11.1	20
1	1244	11.1	21
1	1245	11.1	22
1	1246	11.1	23
1	1258	11.3	22
1	1278	11.5	21
1	1300	11.6	22
1	1301	11.6	23
1	1302	11.6	24
1	1310	11.7	23
1	1318	11.9	22
1	1330	12.1	21
1	1338	12.3	20
1	1346	12.5	19
1	1354	12.7	18
1	1362	12.9	17
1	1370	13.1	16
1	1378	13.3	15
1	1386	13.5	14
1	1394	13.7	13
1	1402	13.9	12
1	1410	14.1	11
1	1418	14.3	10
1	1426	14.5	9
1	1434	14.7	8
1	1442	14.9	7
1	1450	15.1	6
1	1458	15.3	5
1	1466	15.5	4
1	1474	15.7	3
1	1482	15.9	2
1	1490	16.1	1
1	1498	16.3	0
2	0	0	0
2	31	0.1	1
2	32	0.1	2
2	33	0.1	3
2	79	0.6	4
2	80	0.6	5
2	81	0.6	6
2	115	1.1	7
2	116	1.1	8
2	117	1.1	9
2	151	1.6	10
2	152	1.6	11
2	153	1.6	12
2	171	2.1	11
2	191	2.1	12
2	192	2.1	13
2	193	2.1	14
2	203	2.3	13
2	223	2.5	12
2	247	2.6	13
2	248	2.6	14
2	249	2.6	15
2	255	2.7	14
2	263	2.9	13
2	287	3.1	12
2	307	3.1	13
2	308	3.1	14
2	309	3.1	15
2	331	3.3	14
2	351	3.5	13
2	375	3.6	14
2	376	3.6	15
2	377	3.6	16
2	383	3.7	15
2	391	3.9	14
2	411	4.1	13
2	431	4.1	14
2	432	4.1	15
2	433	4.1	16
2	443	4.3	15
2	463	4.5	14
2	487	4.6	15
2	488	4.6	16
2	489	4.6	17
2	495	4.7	16
2	503	4.9	15
2	523	5.1	14
2	543	5.1	15
2	544	5.1	16
2	545	5.1	17
2	555	5.3	16
2	575	5.5	15
2	599	5.6	16
2	600	5.6	17
2	601	5.6	18
2	607	5.7	17
2	615	5.9	16
2	639	6.1	15
2	659	6.1	16
2	660	6.1	17
2	661	6.1	18
2	683	6.3	17
2	703	6.5	16
2	727	6.6	17
2	728	6.6	18
2	729	6.6	19
2	735	6.7	18
2	743	6.9	17
2	763	7.1	16
2	783	7.1	17
2	784	7.1	18
2	785	7.1	19
2	795	7.3	18
2	815	7.5	17
2	839	7.6	18
2	840	7.6	19
2	841	7.6	20
2	847	7.7	19
2	855	7.9	18
2	875	8.1	17
2	895	8.1	18
2	896	8.1	19
2	897	8.1	20
2	907	8.3	19
2	927	8.5	18
2	951	8.6	19
2	952	8.6	20
2	953	8.6	21
2	959	8.7	20
2	967	8.9	19
2	991	9.1	18
2	1011	9.1	19
2	1012	9.1	20
2	1013	9.1	21
2	1035	9.3	20
2	1055	9.5	19
2	1079	9.6	20
2	1080	9.6	21
2	1081	9.6	22
2	1087	9.7	21
2	1095	9.9	20
2	1115	10.1	19
2	1135	10.1	20
2	1136	10.1	21
2	1137	10.1	22
2	1147	10.3	21
2	1167	10.5	20
2	1191	10.6	21
2	1192	10.6	22
2	1193	10.6	23
2	1199	10.7	22
2	1207	10.9	21
2	1227	11.1	20
2	1247	11.1	21
2	1248	11.1	22
2	1249	11.1	23
2	1259	11.3	22
2	1279	11.5	21
2	1303	11.6	22
2	1304	11.6	23
2	1305	11.6	24
2	1311	11.7	23
2	1319	11.9	22
2	1331	12.1	21
2	1339	12.3	20
2	1347	12.5	19
2	1355	12.7	18
2	1363	12.9	17
2	1371	13.1	16
2	1379	13.3	15
2	1387	13.5	14
2	1395	13.7	13
2	1403	13.9	12
2	1411	14.1	11
2	1419	14.3	10
2	1427	14.5	9
2	1435	14.7	8
2	1443	14.9	7
2	1451	15.1	6
2	1459	15.3	5
2	1467	15.5	4
2	1475	15.7	3
2	1483	15.9	2
2	1491	16.1	1
2	1499	16.3	0
3	0	0	0
3	34	0.1	1
3	35	0.1	2
3	36	0.1	3
3	82	0.6	4
3	83	0.6	5
3	84	0.6	6
3	118	1.1	7
3	119	1.1	8
3	120	1.1	9
3	154	1.6	10
3	155	1.6	11
3	156	1.6	12
3	172	2.1	11
3	194	2.1	12
3	195	2.1	13
3	196	2.1	14
3	204	2.3	13
3	224	2.5	12
3	250	2.6	13
3	251	2.6	14
3	252	2.6	15
3	256	2.7	14
3	264	2.9	13
3	288	3.1	12
3	310	3.1	13
3	311	3.1	14
3	312	3.1	15
3	332	3.3	14
3	352	3.5	13
3	378	3.6	14
3	379	3.6	15
3	380	3.6	16
3	384	3.7	15
3	392	3.9	14
3	412	4.1	13
3	434	4.1	14
3	435	4.1	15
3	436	4.1	16
3	444	4.3	15
3	464	4.5	14
3	490	4.6	15
3	491	4.6	16
3	492	4.6	17
3	496	4.7	16
3	504	4.9	15
3	524	5.1	14
3	546	5.1	15
3	547	5.1	16
3	548	5.1	17
3	556	5.3	16
3	576	5.5	15
3	602	5.6	16
3	603	5.6	17
3	604	5.6	18
3	608	5.7	17
3	616	5.9	16
3	640	6.1	15
3	662	6.1	16
3	663	6.1	17
3	664	6.1	18
3	684	6.3	17
3	704	6.5	16
3	730	6.6	17
3	731	6.6	18
3	732	6.6	19
3	736	6.7	18
3	744	6.9	17
3	764	7.1	16
3	786	7.1	17
3	787	7.1	18
3	788	7.1	19
3	796	7.3	18
3	816	7.5	17
3	842	7.6	18
3	843	7.6	19
3	844	7.6	20
3	848	7.7	19
3	856	7.9	18
3	876	8.1	17
3	898	8.1	18
3	899	8.1	19
3	900	8.1	20
3	908	8.3	19
3	928	8.5	18
3	954	8.6	19
3	955	8.6	20
3	956	8.6	21
3	960	8.7	20
3	968	8.9	19
3	992	9.1	18
3	1014	9.1	19
3	1015	9.1	20
3	1016	9.1	21
3	1036	9.3	20
3	1056	9.5	19
3	1082	9.6	20
3	1083	9.6	21
3	1084	9.6	22
3	1088	9.7	21
3	1096	9.9	20
3	1116	10.1	19
3	1138	10.1	20
3	1139	10.1	21
3	1140	10.1	22
3	1148	10.3	21
3	1168	10.5	20
3	1194	10.6	21
3	1195	10.6	22
3	1196	10.6	23
3	1200	10.7	22
3	1208	10.9	21
3	1228	11.1	20
3	1250	11.1	21
3	1251	11.1	22
3	1252	11.1	23
3	1260	11.3	22
3	1280	11.5	21
3	1306	11.6	22
3	1307	11.6	23
3	1308	11.6	24
3	1312	11.7	23
3	1320	11.9	22
3	1332	12.1	21
3	1340	12.3	20
3	1348	12.5	19
3	1356	12.7	18
3	1364	12.9	17
3	1372	13.1	16
3	1380	13.3	15
3	1388	13.5	14
3	1396	13.7	13
3	1404	13.9	12
3	1412	14.1	11
3	1420	14.3	10
3	1428	14.5	9
3	1436	14.7	8
3	1444	14.9	7
3	1452	15.1	6
3	1460	15.3	5
3	1468	15.5	4
3	1476	15.7	3
3	1484	15.9	2
3	1492	16.1	1
3	1500	16.3	0
4	169	2.1	2.1
4	201	2.3	2.3
4	221	2.5	2.5
4	253	2.7	2.7
4	261	2.9	2.9
4	285	3.1	3.1
4	329	3.3	3.3
4	349	3.5	3.5
4	381	3.7	3.7
4	389	3.9	3.9
4	409	4.1	4.1
4	441	4.3	4.3
4	461	4.5	4.5
4	493	4.7	4.7
4	501	4.9	4.9
4	521	5.1	5.1
4	553	5.3	5.3
4	573	5.5	5.5
4	605	5.7	5.7
4	613	5.9	5.9
4	637	6.1	6.1
4	681	6.3	6.3
4	701	6.5	6.5
4	733	6.7	6.7
4	741	6.9	6.9
4	761	7.1	7.1
4	793	7.3	7.3
4	813	7.5	7.5
4	845	7.7	7.7
4	853	7.9	7.9
4	873	8.1	8.1
4	905	8.3	8.3
4	925	8.5	8.5
4	957	8.7	8.7
4	965	8.9	8.9
4	989	9.1	9.1
4	1033	9.3	9.3
4	1053	9.5	9.5
4	1085	9.7	9.7
4	1093	9.9	9.9
4	1113	10.1	10.1
4	1145	10.3	10.3
4	1165	10.5	10.5
4	1197	10.7	10.7
4	1205	10.9	10.9
4	1225	11.1	11.1
4	1257	11.3	11.3
4	1277	11.5	11.5
4	1309	11.7	11.7
4	1317	11.9	11.9
4	1329	12.1	12.1
4	1337	12.3	12.3
4	1345	12.5	12.5
4	1353	12.7	12.7
4	1361	12.9	12.9
4	1369	13.1	13.1
4	1377	13.3	13.3
4	1385	13.5	13.5
4	1393	13.7	13.7
4	1401	13.9	13.9
4	1409	14.1	14.1
4	1417	14.3	14.3
4	1425	14.5	14.5
4	1433	14.7	14.7
4	1441	14.9	14.9
4	1449	15.1	15.1
4	1457	15.3	15.3
4	1465	15.5	15.5
4	1473	15.7	15.7
4	1481	15.9	15.9
4	1489	16.1	16.1
4	1497	16.3	16.3
5	170	2.1	2.1
5	202	2.3	2.3
5	222	2.5	2.5
5	254	2.7	2.7
5	262	2.9	2.9
5	286	3.1	3.1
5	330	3.3	3.3
5	350	3.5	3.5
5	382	3.7	3.7
5	390	3.9	3.9
5	410	4.1	4.1
5	442	4.3	4.3
5	462	4.5	4.5
5	494	4.7	4.7
5	502	4.9	4.9
5	522	5.1	5.1
5	554	5.3	5.3
5	574	5.5	5.5
5	606	5.7	5.7
5	614	5.9	5.9
5	638	6.1	6.1
5	682	6.3	6.3
5	702	6.5	6.5
5	734	6.7	6.7
5	742	6.9	6.9
5	762	7.1	7.1
5	794	7.3	7.3
5	814	7.5	7.5
5	846	7.7	7.7
5	854	7.9	7.9
5	874	8.1	8.1
5	906	8.3	8.3
5	926	8.5	8.5
5	958	8.7	8.7
5	966	8.9	8.9
5	990	9.1	9.1
5	1034	9.3	9.3
5	1054	9.5	9.5
5	1086	9.7	9.7
5	1094	9.9	9.9
5	1114	10.1	10.1
5	1146	10.3	10.3
5	1166	10.5	10.5
5	1198	10.7	10.7
5	1206	10.9	10.9
5	1226	11.1	11.1
5	1258	11.3	11.3
5	1278	11.5	11.5
5	1310	11.7	11.7
5	1318	11.9	11.9
5	1330	12.1	12.1
5	1338	12.3	12.3
5	1346	12.5	12.5
5	1354	12.7	12.7
5	1362	12.9	12.9
5	1370	13.1	13.1
5	1378	13.3	13.3
5	1386	13.5	13.5
5	1394	13.7	13.7
5	1402	13.9	13.9
5	1410	14.1	14.1
5	1418	14.3	14.3
5	1426	14.5	14.5
5	1434	14.7	14.7
5	1442	14.9	14.9
5	1450	15.1	15.1
5	1458	15.3	15.3
5	1466	15.5	15.5
5	1474	15.7	15.7
5	1482	15.9	15.9
5	1490	16.1	16.1
5	1498	16.3	16.3
6	171	2.1	2.1
6	203	2.3	2.3
6	223	2.5	2.5
6	255	2.7	2.7
6	263	2.9	2.9
6	287	3.1	3.1
6	331	3.3	3.3
6	351	3.5	3.5
6	383	3.7	3.7
6	391	3.9	3.9
6	411	4.1	4.1
6	443	4.3	4.3
6	463	4.5	4.5
6	495	4.7	4.7
6	503	4.9	4.9
6	523	5.1	5.1
6	555	5.3	5.3
6	575	5.5	5.5
6	607	5.7	5.7
6	615	5.9	5.9
6	639	6.1	6.1
6	683	6.3	6.3
6	703	6.5	6.5
6	735	6.7	6.7
6	743	6.9	6.9
6	763	7.1	7.1
6	795	7.3	7.3
6	815	7.5	7.5
6	847	7.7	7.7
6	855	7.9	7.9
6	875	8.1	8.1
6	907	8.3	8.3
6	927	8.5	8.5
6	959	8.7	8.7
6	967	8.9	8.9
6	991	9.1	9.1
6	1035	9.3	9.3
6	1055	9.5	9.5
6	1087	9.7	9.7
6	1095	9.9	9.9
6	1115	10.1	10.1
6	1147	10.3	10.3
6	1167	10.5	10.5
6	1199	10.7	10.7
6	1207	10.9	10.9
6	1227	11.1	11.1
6	1259	11.3	11.3
6	1279	11.5	11.5
6	1311	11.7	11.7
6	1319	11.9	11.9
6	1331	12.1	12.1
6	1339	12.3	12.3
6	1347	12.5	12.5
6	1355	12.7	12.7
6	1363	12.9	12.9
6	1371	13.1	13.1
6	1379	13.3	13.3
6	1387	13.5	13.5
6	1395	13.7	13.7
6	1403	13.9	13.9
6	1411	14.1	14.1
6	1419	14.3	14.3
6	1427	14.5	14.5
6	1435	14.7	14.7
6	1443	14.9	14.9
6	1451	15.1	15.1
6	1459	15.3	15.3
6	1467	15.5	15.5
6	1475	15.7	15.7
6	1483	15.9	15.9
6	1491	16.1	16.1
6	1499	16.3	16.3
7	172	2.1	2.1
7	204	2.3	2.3
7	224	2.5	2.5
7	256	2.7	2.7
7	264	2.9	2.9
7	288	3.1	3.1
7	332	3.3	3.3
7	352	3.5	3.5
7	384	3.7	3.7
7	392	3.9	3.9
7	412	4.1	4.1
7	444	4.3	4.3
7	464	4.5	4.5
7	496	4.7	4.7
7	504	4.9	4.9
7	524	5.1	5.1
7	556	5.3	5.3
7	576	5.5	5.5
7	608	5.7	5.7
7	616	5.9	5.9
7	640	6.1	6.1
7	684	6.3	6.3
7	704	6.5	6.5
7	736	6.7	6.7
7	744	6.9	6.9
7	764	7.1	7.1
7	796	7.3	7.3
7	816	7.5	7.5
7	848	7.7	7.7
7	856	7.9	7.9
7	876	8.1	8.1
7	908	8.3	8.3
7	928	8.5	8.5
7	960	8.7	8.7
7	968	8.9	8.9
7	992	9.1	9.1
7	1036	9.3	9.3
7	1056	9.5	9.5
7	1088	9.7	9.7
7	1096	9.9	9.9
7	1116	10.1	10.1
7	1148	10.3	10.3
7	1168	10.5	10.5
7	1200	10.7	10.7
7	1208	10.9	10.9
7	1228	11.1	11.1
7	1260	11.3	11.3
7	1280	11.5	11.5
7	1312	11.7	11.7
7	1320	11.9	11.9
7	1332	12.1	12.1
7	1340	12.3	12.3
7	1348	12.5	12.5
7	1356	12.7	12.7
7	1364	12.9	12.9
7	1372	13.1	13.1
7	1380	13.3	13.3
7	1388	13.5	13.5
7	1396	13.7	13.7
7	1404	13.9	13.9
7	1412	14.1	14.1
7	1420	14.3	14.3
7	1428	14.5	14.5
7	1436	14.7	14.7
7	1444	14.9	14.9
7	1452	15.1	15.1
7	1460	15.3	15.3
7	1468	15.5	15.5
7	1476	15.7	15.7
7	1484	15.9	15.9
7	1492	16.1	16.1
7	1500	16.3	16.3

