version 2
run MicrogridNetwork-0-20180424-03:41:05-10841
attr configname MicrogridNetwork
attr datetime 20180424-03:41:05
attr experiment MicrogridNetwork
attr inifile omnetpp.ini
attr iterationvars ""
attr iterationvarsf ""
attr measurement ""
attr network MicrogridNetwork
attr processid 10841
attr repetition 0
attr replication #0
attr resultdir results
attr runnumber 0
attr seedset 0

vector 0 MicrogridNetwork.pico[0].queue queueLength:vector ETV
attr interpolationmode sample-hold
attr title "queue length, vector"
vector 1 MicrogridNetwork.pico[0].queue averageThroughput:vector ETV
attr interpolationmode sample-hold
attr title "average throughput, vector"
vector 2 MicrogridNetwork.pico[1].queue queueLength:vector ETV
attr interpolationmode sample-hold
attr title "queue length, vector"
vector 3 MicrogridNetwork.pico[1].queue averageThroughput:vector ETV
attr interpolationmode sample-hold
attr title "average throughput, vector"
vector 4 MicrogridNetwork.pico[2].queue queueLength:vector ETV
attr interpolationmode sample-hold
attr title "queue length, vector"
vector 5 MicrogridNetwork.pico[2].queue averageThroughput:vector ETV
attr interpolationmode sample-hold
attr title "average throughput, vector"
vector 6 MicrogridNetwork.pico[3].queue queueLength:vector ETV
attr interpolationmode sample-hold
attr title "queue length, vector"
vector 7 MicrogridNetwork.pico[3].queue averageThroughput:vector ETV
attr interpolationmode sample-hold
attr title "average throughput, vector"
vector 8 MicrogridNetwork.pico[0].queue queueingTime:vector ETV
attr interpolationmode none
attr title "queueing time at dequeue, vector"
attr unit s
vector 9 MicrogridNetwork.pico[1].queue queueingTime:vector ETV
attr interpolationmode none
attr title "queueing time at dequeue, vector"
attr unit s
vector 10 MicrogridNetwork.pico[2].queue queueingTime:vector ETV
attr interpolationmode none
attr title "queueing time at dequeue, vector"
attr unit s
vector 11 MicrogridNetwork.pico[3].queue queueingTime:vector ETV
attr interpolationmode none
attr title "queueing time at dequeue, vector"
attr unit s
vector 12 MicrogridNetwork.macro[0] timeSensitiveQueueMsgTime:vector ETV
attr interpolationmode sample-hold
attr title "timeSensitiveQueueMsgTime, vector"
vector 13 MicrogridNetwork.macro[0] timeMediumQueueMsgTime:vector ETV
attr interpolationmode sample-hold
attr title "timeMediumQueueMsgTime, vector"
vector 14 MicrogridNetwork.macro[0] timeTolerantQueueMsgTime:vector ETV
attr interpolationmode sample-hold
attr title "timeTolerantQueueMsgTime, vector"
0	0	0	0
0	25	0.1	1
0	26	0.1	2
0	27	0.1	3
0	73	0.6	4
0	74	0.6	5
0	75	0.6	6
0	113	1.1	5
0	129	1.1	6
0	130	1.1	7
0	131	1.1	8
0	157	1.3	7
0	177	1.5	6
0	197	1.6	7
0	198	1.6	8
0	199	1.6	9
0	209	1.7	8
0	229	1.9	7
0	253	2.1	6
0	269	2.1	7
0	270	2.1	8
0	271	2.1	9
0	297	2.3	8
0	317	2.5	7
0	337	2.6	8
0	338	2.6	9
0	339	2.6	10
0	349	2.7	9
0	369	2.9	8
0	393	3.1	7
0	409	3.1	8
0	410	3.1	9
0	411	3.1	10
0	437	3.3	9
0	457	3.5	8
0	477	3.6	9
0	478	3.6	10
0	479	3.6	11
0	489	3.7	10
0	509	3.9	9
0	533	4.1	8
0	549	4.1	9
0	550	4.1	10
0	551	4.1	11
0	577	4.3	10
0	597	4.5	9
0	617	4.6	10
0	618	4.6	11
0	619	4.6	12
0	629	4.7	11
0	649	4.9	10
0	673	5.1	9
0	689	5.1	10
0	690	5.1	11
0	691	5.1	12
0	717	5.3	11
0	737	5.5	10
0	757	5.6	11
0	758	5.6	12
0	759	5.6	13
0	769	5.7	12
0	789	5.9	11
0	813	6.1	10
0	829	6.1	11
0	830	6.1	12
0	831	6.1	13
0	857	6.3	12
0	877	6.5	11
0	897	6.6	12
0	898	6.6	13
0	899	6.6	14
0	909	6.7	13
0	929	6.9	12
0	953	7.1	11
0	969	7.1	12
0	970	7.1	13
0	971	7.1	14
0	997	7.3	13
0	1017	7.5	12
0	1037	7.6	13
0	1038	7.6	14
0	1039	7.6	15
0	1049	7.7	14
0	1069	7.9	13
0	1093	8.1	12
0	1109	8.1	13
0	1110	8.1	14
0	1111	8.1	15
0	1137	8.3	14
0	1157	8.5	13
0	1177	8.6	14
0	1178	8.6	15
0	1179	8.6	16
0	1189	8.7	15
0	1209	8.9	14
0	1233	9.1	13
0	1249	9.1	14
0	1250	9.1	15
0	1251	9.1	16
0	1277	9.3	15
0	1297	9.5	14
0	1317	9.6	15
0	1318	9.6	16
0	1319	9.6	17
0	1329	9.7	16
0	1349	9.9	15
0	1373	10.1	14
0	1389	10.1	15
0	1390	10.1	16
0	1391	10.1	17
0	1417	10.3	16
0	1437	10.5	15
0	1457	10.6	16
0	1458	10.6	17
0	1459	10.6	18
0	1469	10.7	17
0	1489	10.9	16
0	1513	11.1	15
0	1529	11.1	16
0	1530	11.1	17
0	1531	11.1	18
0	1557	11.3	17
0	1577	11.5	16
0	1597	11.6	17
0	1598	11.6	18
0	1599	11.6	19
0	1609	11.7	18
0	1629	11.9	17
0	1641	12.1	16
0	1649	12.3	15
0	1657	12.5	14
0	1665	12.7	13
0	1673	12.9	12
0	1681	13.1	11
0	1689	13.3	10
0	1697	13.5	9
0	1705	13.7	8
0	1713	13.9	7
0	1721	14.1	6
0	1729	14.3	5
0	1737	14.5	4
0	1745	14.7	3
0	1753	14.9	2
0	1761	15.1	1
0	1769	15.3	0
1	0	0	0
1	113	1.1	6
1	157	1.3	9
1	177	1.5	9
1	209	1.7	12
1	229	1.9	12
1	253	2.1	12
1	297	2.3	15
1	317	2.5	15
1	349	2.7	18
1	369	2.9	18
1	393	3.1	18
1	437	3.3	21
1	457	3.5	21
1	489	3.7	24
1	509	3.9	24
1	533	4.1	24
1	577	4.3	27
1	597	4.5	27
1	629	4.7	30
1	649	4.9	30
1	673	5.1	30
1	717	5.3	33
1	737	5.5	33
1	769	5.7	36
1	789	5.9	36
1	813	6.1	36
1	857	6.3	39
1	877	6.5	39
1	909	6.7	42
1	929	6.9	42
1	953	7.1	42
1	997	7.3	45
1	1017	7.5	45
1	1049	7.7	48
1	1069	7.9	48
1	1093	8.1	48
1	1137	8.3	51
1	1157	8.5	51
1	1189	8.7	54
1	1209	8.9	54
1	1233	9.1	54
1	1277	9.3	57
1	1297	9.5	57
1	1329	9.7	60
1	1349	9.9	60
1	1373	10.1	60
1	1417	10.3	63
1	1437	10.5	63
1	1469	10.7	66
1	1489	10.9	66
1	1513	11.1	66
1	1557	11.3	69
1	1577	11.5	69
1	1609	11.7	72
1	1629	11.9	72
1	1641	12.1	72
1	1649	12.3	72
1	1657	12.5	72
1	1665	12.7	72
1	1673	12.9	72
1	1681	13.1	72
1	1689	13.3	72
1	1697	13.5	72
1	1705	13.7	72
1	1713	13.9	72
1	1721	14.1	72
1	1729	14.3	72
1	1737	14.5	72
1	1745	14.7	72
1	1753	14.9	72
1	1761	15.1	72
1	1769	15.3	72
1	1777	15.5	72
2	0	0	0
2	28	0.1	1
2	29	0.1	2
2	30	0.1	3
2	76	0.6	4
2	77	0.6	5
2	78	0.6	6
2	114	1.1	5
2	132	1.1	6
2	133	1.1	7
2	134	1.1	8
2	158	1.3	7
2	178	1.5	6
2	200	1.6	7
2	201	1.6	8
2	202	1.6	9
2	210	1.7	8
2	230	1.9	7
2	254	2.1	6
2	272	2.1	7
2	273	2.1	8
2	274	2.1	9
2	298	2.3	8
2	318	2.5	7
2	340	2.6	8
2	341	2.6	9
2	342	2.6	10
2	350	2.7	9
2	370	2.9	8
2	394	3.1	7
2	412	3.1	8
2	413	3.1	9
2	414	3.1	10
2	438	3.3	9
2	458	3.5	8
2	480	3.6	9
2	481	3.6	10
2	482	3.6	11
2	490	3.7	10
2	510	3.9	9
2	534	4.1	8
2	552	4.1	9
2	553	4.1	10
2	554	4.1	11
2	578	4.3	10
2	598	4.5	9
2	620	4.6	10
2	621	4.6	11
2	622	4.6	12
2	630	4.7	11
2	650	4.9	10
2	674	5.1	9
2	692	5.1	10
2	693	5.1	11
2	694	5.1	12
2	718	5.3	11
2	738	5.5	10
2	760	5.6	11
2	761	5.6	12
2	762	5.6	13
2	770	5.7	12
2	790	5.9	11
2	814	6.1	10
2	832	6.1	11
2	833	6.1	12
2	834	6.1	13
2	858	6.3	12
2	878	6.5	11
2	900	6.6	12
2	901	6.6	13
2	902	6.6	14
2	910	6.7	13
2	930	6.9	12
2	954	7.1	11
2	972	7.1	12
2	973	7.1	13
2	974	7.1	14
2	998	7.3	13
2	1018	7.5	12
2	1040	7.6	13
2	1041	7.6	14
2	1042	7.6	15
2	1050	7.7	14
2	1070	7.9	13
2	1094	8.1	12
2	1112	8.1	13
2	1113	8.1	14
2	1114	8.1	15
2	1138	8.3	14
2	1158	8.5	13
2	1180	8.6	14
2	1181	8.6	15
2	1182	8.6	16
2	1190	8.7	15
2	1210	8.9	14
2	1234	9.1	13
2	1252	9.1	14
2	1253	9.1	15
2	1254	9.1	16
2	1278	9.3	15
2	1298	9.5	14
2	1320	9.6	15
2	1321	9.6	16
2	1322	9.6	17
2	1330	9.7	16
2	1350	9.9	15
2	1374	10.1	14
2	1392	10.1	15
2	1393	10.1	16
2	1394	10.1	17
2	1418	10.3	16
2	1438	10.5	15
2	1460	10.6	16
2	1461	10.6	17
2	1462	10.6	18
2	1470	10.7	17
2	1490	10.9	16
2	1514	11.1	15
2	1532	11.1	16
2	1533	11.1	17
2	1534	11.1	18
2	1558	11.3	17
2	1578	11.5	16
2	1600	11.6	17
2	1601	11.6	18
2	1602	11.6	19
2	1610	11.7	18
2	1630	11.9	17
2	1642	12.1	16
2	1650	12.3	15
2	1658	12.5	14
2	1666	12.7	13
2	1674	12.9	12
2	1682	13.1	11
2	1690	13.3	10
2	1698	13.5	9
2	1706	13.7	8
2	1714	13.9	7
2	1722	14.1	6
2	1730	14.3	5
2	1738	14.5	4
2	1746	14.7	3
2	1754	14.9	2
2	1762	15.1	1
2	1770	15.3	0
3	0	0	0
3	114	1.1	6
3	158	1.3	9
3	178	1.5	9
3	210	1.7	12
3	230	1.9	12
3	254	2.1	12
3	298	2.3	15
3	318	2.5	15
3	350	2.7	18
3	370	2.9	18
3	394	3.1	18
3	438	3.3	21
3	458	3.5	21
3	490	3.7	24
3	510	3.9	24
3	534	4.1	24
3	578	4.3	27
3	598	4.5	27
3	630	4.7	30
3	650	4.9	30
3	674	5.1	30
3	718	5.3	33
3	738	5.5	33
3	770	5.7	36
3	790	5.9	36
3	814	6.1	36
3	858	6.3	39
3	878	6.5	39
3	910	6.7	42
3	930	6.9	42
3	954	7.1	42
3	998	7.3	45
3	1018	7.5	45
3	1050	7.7	48
3	1070	7.9	48
3	1094	8.1	48
3	1138	8.3	51
3	1158	8.5	51
3	1190	8.7	54
3	1210	8.9	54
3	1234	9.1	54
3	1278	9.3	57
3	1298	9.5	57
3	1330	9.7	60
3	1350	9.9	60
3	1374	10.1	60
3	1418	10.3	63
3	1438	10.5	63
3	1470	10.7	66
3	1490	10.9	66
3	1514	11.1	66
3	1558	11.3	69
3	1578	11.5	69
3	1610	11.7	72
3	1630	11.9	72
3	1642	12.1	72
3	1650	12.3	72
3	1658	12.5	72
3	1666	12.7	72
3	1674	12.9	72
3	1682	13.1	72
3	1690	13.3	72
3	1698	13.5	72
3	1706	13.7	72
3	1714	13.9	72
3	1722	14.1	72
3	1730	14.3	72
3	1738	14.5	72
3	1746	14.7	72
3	1754	14.9	72
3	1762	15.1	72
3	1770	15.3	72
3	1778	15.5	72
4	0	0	0
4	31	0.1	1
4	32	0.1	2
4	33	0.1	3
4	79	0.6	4
4	80	0.6	5
4	81	0.6	6
4	115	1.1	5
4	135	1.1	6
4	136	1.1	7
4	137	1.1	8
4	159	1.3	7
4	179	1.5	6
4	203	1.6	7
4	204	1.6	8
4	205	1.6	9
4	211	1.7	8
4	231	1.9	7
4	255	2.1	6
4	275	2.1	7
4	276	2.1	8
4	277	2.1	9
4	299	2.3	8
4	319	2.5	7
4	343	2.6	8
4	344	2.6	9
4	345	2.6	10
4	351	2.7	9
4	371	2.9	8
4	395	3.1	7
4	415	3.1	8
4	416	3.1	9
4	417	3.1	10
4	439	3.3	9
4	459	3.5	8
4	483	3.6	9
4	484	3.6	10
4	485	3.6	11
4	491	3.7	10
4	511	3.9	9
4	535	4.1	8
4	555	4.1	9
4	556	4.1	10
4	557	4.1	11
4	579	4.3	10
4	599	4.5	9
4	623	4.6	10
4	624	4.6	11
4	625	4.6	12
4	631	4.7	11
4	651	4.9	10
4	675	5.1	9
4	695	5.1	10
4	696	5.1	11
4	697	5.1	12
4	719	5.3	11
4	739	5.5	10
4	763	5.6	11
4	764	5.6	12
4	765	5.6	13
4	771	5.7	12
4	791	5.9	11
4	815	6.1	10
4	835	6.1	11
4	836	6.1	12
4	837	6.1	13
4	859	6.3	12
4	879	6.5	11
4	903	6.6	12
4	904	6.6	13
4	905	6.6	14
4	911	6.7	13
4	931	6.9	12
4	955	7.1	11
4	975	7.1	12
4	976	7.1	13
4	977	7.1	14
4	999	7.3	13
4	1019	7.5	12
4	1043	7.6	13
4	1044	7.6	14
4	1045	7.6	15
4	1051	7.7	14
4	1071	7.9	13
4	1095	8.1	12
4	1115	8.1	13
4	1116	8.1	14
4	1117	8.1	15
4	1139	8.3	14
4	1159	8.5	13
4	1183	8.6	14
4	1184	8.6	15
4	1185	8.6	16
4	1191	8.7	15
4	1211	8.9	14
4	1235	9.1	13
4	1255	9.1	14
4	1256	9.1	15
4	1257	9.1	16
4	1279	9.3	15
4	1299	9.5	14
4	1323	9.6	15
4	1324	9.6	16
4	1325	9.6	17
4	1331	9.7	16
4	1351	9.9	15
4	1375	10.1	14
4	1395	10.1	15
4	1396	10.1	16
4	1397	10.1	17
4	1419	10.3	16
4	1439	10.5	15
4	1463	10.6	16
4	1464	10.6	17
4	1465	10.6	18
4	1471	10.7	17
4	1491	10.9	16
4	1515	11.1	15
4	1535	11.1	16
4	1536	11.1	17
4	1537	11.1	18
4	1559	11.3	17
4	1579	11.5	16
4	1603	11.6	17
4	1604	11.6	18
4	1605	11.6	19
4	1611	11.7	18
4	1631	11.9	17
4	1643	12.1	16
4	1651	12.3	15
4	1659	12.5	14
4	1667	12.7	13
4	1675	12.9	12
4	1683	13.1	11
4	1691	13.3	10
4	1699	13.5	9
4	1707	13.7	8
4	1715	13.9	7
4	1723	14.1	6
4	1731	14.3	5
4	1739	14.5	4
4	1747	14.7	3
4	1755	14.9	2
4	1763	15.1	1
4	1771	15.3	0
5	0	0	0
5	115	1.1	6
5	159	1.3	9
5	179	1.5	9
5	211	1.7	12
5	231	1.9	12
5	255	2.1	12
5	299	2.3	15
5	319	2.5	15
5	351	2.7	18
5	371	2.9	18
5	395	3.1	18
5	439	3.3	21
5	459	3.5	21
5	491	3.7	24
5	511	3.9	24
5	535	4.1	24
5	579	4.3	27
5	599	4.5	27
5	631	4.7	30
5	651	4.9	30
5	675	5.1	30
5	719	5.3	33
5	739	5.5	33
5	771	5.7	36
5	791	5.9	36
5	815	6.1	36
5	859	6.3	39
5	879	6.5	39
5	911	6.7	42
5	931	6.9	42
5	955	7.1	42
5	999	7.3	45
5	1019	7.5	45
5	1051	7.7	48
5	1071	7.9	48
5	1095	8.1	48
5	1139	8.3	51
5	1159	8.5	51
5	1191	8.7	54
5	1211	8.9	54
5	1235	9.1	54
5	1279	9.3	57
5	1299	9.5	57
5	1331	9.7	60
5	1351	9.9	60
5	1375	10.1	60
5	1419	10.3	63
5	1439	10.5	63
5	1471	10.7	66
5	1491	10.9	66
5	1515	11.1	66
5	1559	11.3	69
5	1579	11.5	69
5	1611	11.7	72
5	1631	11.9	72
5	1643	12.1	72
5	1651	12.3	72
5	1659	12.5	72
5	1667	12.7	72
5	1675	12.9	72
5	1683	13.1	72
5	1691	13.3	72
5	1699	13.5	72
5	1707	13.7	72
5	1715	13.9	72
5	1723	14.1	72
5	1731	14.3	72
5	1739	14.5	72
5	1747	14.7	72
5	1755	14.9	72
5	1763	15.1	72
5	1771	15.3	72
5	1779	15.5	72
6	0	0	0
6	34	0.1	1
6	35	0.1	2
6	36	0.1	3
6	82	0.6	4
6	83	0.6	5
6	84	0.6	6
6	116	1.1	5
6	138	1.1	6
6	139	1.1	7
6	140	1.1	8
6	160	1.3	7
6	180	1.5	6
6	206	1.6	7
6	207	1.6	8
6	208	1.6	9
6	212	1.7	8
6	232	1.9	7
6	256	2.1	6
6	278	2.1	7
6	279	2.1	8
6	280	2.1	9
6	300	2.3	8
6	320	2.5	7
6	346	2.6	8
6	347	2.6	9
6	348	2.6	10
6	352	2.7	9
6	372	2.9	8
6	396	3.1	7
6	418	3.1	8
6	419	3.1	9
6	420	3.1	10
6	440	3.3	9
6	460	3.5	8
6	486	3.6	9
6	487	3.6	10
6	488	3.6	11
6	492	3.7	10
6	512	3.9	9
6	536	4.1	8
6	558	4.1	9
6	559	4.1	10
6	560	4.1	11
6	580	4.3	10
6	600	4.5	9
6	626	4.6	10
6	627	4.6	11
6	628	4.6	12
6	632	4.7	11
6	652	4.9	10
6	676	5.1	9
6	698	5.1	10
6	699	5.1	11
6	700	5.1	12
6	720	5.3	11
6	740	5.5	10
6	766	5.6	11
6	767	5.6	12
6	768	5.6	13
6	772	5.7	12
6	792	5.9	11
6	816	6.1	10
6	838	6.1	11
6	839	6.1	12
6	840	6.1	13
6	860	6.3	12
6	880	6.5	11
6	906	6.6	12
6	907	6.6	13
6	908	6.6	14
6	912	6.7	13
6	932	6.9	12
6	956	7.1	11
6	978	7.1	12
6	979	7.1	13
6	980	7.1	14
6	1000	7.3	13
6	1020	7.5	12
6	1046	7.6	13
6	1047	7.6	14
6	1048	7.6	15
6	1052	7.7	14
6	1072	7.9	13
6	1096	8.1	12
6	1118	8.1	13
6	1119	8.1	14
6	1120	8.1	15
6	1140	8.3	14
6	1160	8.5	13
6	1186	8.6	14
6	1187	8.6	15
6	1188	8.6	16
6	1192	8.7	15
6	1212	8.9	14
6	1236	9.1	13
6	1258	9.1	14
6	1259	9.1	15
6	1260	9.1	16
6	1280	9.3	15
6	1300	9.5	14
6	1326	9.6	15
6	1327	9.6	16
6	1328	9.6	17
6	1332	9.7	16
6	1352	9.9	15
6	1376	10.1	14
6	1398	10.1	15
6	1399	10.1	16
6	1400	10.1	17
6	1420	10.3	16
6	1440	10.5	15
6	1466	10.6	16
6	1467	10.6	17
6	1468	10.6	18
6	1472	10.7	17
6	1492	10.9	16
6	1516	11.1	15
6	1538	11.1	16
6	1539	11.1	17
6	1540	11.1	18
6	1560	11.3	17
6	1580	11.5	16
6	1606	11.6	17
6	1607	11.6	18
6	1608	11.6	19
6	1612	11.7	18
6	1632	11.9	17
6	1644	12.1	16
6	1652	12.3	15
6	1660	12.5	14
6	1668	12.7	13
6	1676	12.9	12
6	1684	13.1	11
6	1692	13.3	10
6	1700	13.5	9
6	1708	13.7	8
6	1716	13.9	7
6	1724	14.1	6
6	1732	14.3	5
6	1740	14.5	4
6	1748	14.7	3
6	1756	14.9	2
6	1764	15.1	1
6	1772	15.3	0
7	0	0	0
7	116	1.1	6
7	160	1.3	9
7	180	1.5	9
7	212	1.7	12
7	232	1.9	12
7	256	2.1	12
7	300	2.3	15
7	320	2.5	15
7	352	2.7	18
7	372	2.9	18
7	396	3.1	18
7	440	3.3	21
7	460	3.5	21
7	492	3.7	24
7	512	3.9	24
7	536	4.1	24
7	580	4.3	27
7	600	4.5	27
7	632	4.7	30
7	652	4.9	30
7	676	5.1	30
7	720	5.3	33
7	740	5.5	33
7	772	5.7	36
7	792	5.9	36
7	816	6.1	36
7	860	6.3	39
7	880	6.5	39
7	912	6.7	42
7	932	6.9	42
7	956	7.1	42
7	1000	7.3	45
7	1020	7.5	45
7	1052	7.7	48
7	1072	7.9	48
7	1096	8.1	48
7	1140	8.3	51
7	1160	8.5	51
7	1192	8.7	54
7	1212	8.9	54
7	1236	9.1	54
7	1280	9.3	57
7	1300	9.5	57
7	1332	9.7	60
7	1352	9.9	60
7	1376	10.1	60
7	1420	10.3	63
7	1440	10.5	63
7	1472	10.7	66
7	1492	10.9	66
7	1516	11.1	66
7	1560	11.3	69
7	1580	11.5	69
7	1612	11.7	72
7	1632	11.9	72
7	1644	12.1	72
7	1652	12.3	72
7	1660	12.5	72
7	1668	12.7	72
7	1676	12.9	72
7	1684	13.1	72
7	1692	13.3	72
7	1700	13.5	72
7	1708	13.7	72
7	1716	13.9	72
7	1724	14.1	72
7	1732	14.3	72
7	1740	14.5	72
7	1748	14.7	72
7	1756	14.9	72
7	1764	15.1	72
7	1772	15.3	72
7	1780	15.5	72
8	113	1.1	1.1
8	157	1.3	1.3
8	177	1.5	1.5
8	209	1.7	1.7
8	229	1.9	1.9
8	253	2.1	2.1
8	297	2.3	2.3
8	317	2.5	2.5
8	349	2.7	2.7
8	369	2.9	2.9
8	393	3.1	3.1
8	437	3.3	3.3
8	457	3.5	3.5
8	489	3.7	3.7
8	509	3.9	3.9
8	533	4.1	4.1
8	577	4.3	4.3
8	597	4.5	4.5
8	629	4.7	4.7
8	649	4.9	4.9
8	673	5.1	5.1
8	717	5.3	5.3
8	737	5.5	5.5
8	769	5.7	5.7
8	789	5.9	5.9
8	813	6.1	6.1
8	857	6.3	6.3
8	877	6.5	6.5
8	909	6.7	6.7
8	929	6.9	6.9
8	953	7.1	7.1
8	997	7.3	7.3
8	1017	7.5	7.5
8	1049	7.7	7.7
8	1069	7.9	7.9
8	1093	8.1	8.1
8	1137	8.3	8.3
8	1157	8.5	8.5
8	1189	8.7	8.7
8	1209	8.9	8.9
8	1233	9.1	9.1
8	1277	9.3	9.3
8	1297	9.5	9.5
8	1329	9.7	9.7
8	1349	9.9	9.9
8	1373	10.1	10.1
8	1417	10.3	10.3
8	1437	10.5	10.5
8	1469	10.7	10.7
8	1489	10.9	10.9
8	1513	11.1	11.1
8	1557	11.3	11.3
8	1577	11.5	11.5
8	1609	11.7	11.7
8	1629	11.9	11.9
8	1641	12.1	12.1
8	1649	12.3	12.3
8	1657	12.5	12.5
8	1665	12.7	12.7
8	1673	12.9	12.9
8	1681	13.1	13.1
8	1689	13.3	13.3
8	1697	13.5	13.5
8	1705	13.7	13.7
8	1713	13.9	13.9
8	1721	14.1	14.1
8	1729	14.3	14.3
8	1737	14.5	14.5
8	1745	14.7	14.7
8	1753	14.9	14.9
8	1761	15.1	15.1
8	1769	15.3	15.3
9	114	1.1	1.1
9	158	1.3	1.3
9	178	1.5	1.5
9	210	1.7	1.7
9	230	1.9	1.9
9	254	2.1	2.1
9	298	2.3	2.3
9	318	2.5	2.5
9	350	2.7	2.7
9	370	2.9	2.9
9	394	3.1	3.1
9	438	3.3	3.3
9	458	3.5	3.5
9	490	3.7	3.7
9	510	3.9	3.9
9	534	4.1	4.1
9	578	4.3	4.3
9	598	4.5	4.5
9	630	4.7	4.7
9	650	4.9	4.9
9	674	5.1	5.1
9	718	5.3	5.3
9	738	5.5	5.5
9	770	5.7	5.7
9	790	5.9	5.9
9	814	6.1	6.1
9	858	6.3	6.3
9	878	6.5	6.5
9	910	6.7	6.7
9	930	6.9	6.9
9	954	7.1	7.1
9	998	7.3	7.3
9	1018	7.5	7.5
9	1050	7.7	7.7
9	1070	7.9	7.9
9	1094	8.1	8.1
9	1138	8.3	8.3
9	1158	8.5	8.5
9	1190	8.7	8.7
9	1210	8.9	8.9
9	1234	9.1	9.1
9	1278	9.3	9.3
9	1298	9.5	9.5
9	1330	9.7	9.7
9	1350	9.9	9.9
9	1374	10.1	10.1
9	1418	10.3	10.3
9	1438	10.5	10.5
9	1470	10.7	10.7
9	1490	10.9	10.9
9	1514	11.1	11.1
9	1558	11.3	11.3
9	1578	11.5	11.5
9	1610	11.7	11.7
9	1630	11.9	11.9
9	1642	12.1	12.1
9	1650	12.3	12.3
9	1658	12.5	12.5
9	1666	12.7	12.7
9	1674	12.9	12.9
9	1682	13.1	13.1
9	1690	13.3	13.3
9	1698	13.5	13.5
9	1706	13.7	13.7
9	1714	13.9	13.9
9	1722	14.1	14.1
9	1730	14.3	14.3
9	1738	14.5	14.5
9	1746	14.7	14.7
9	1754	14.9	14.9
9	1762	15.1	15.1
9	1770	15.3	15.3
10	115	1.1	1.1
10	159	1.3	1.3
10	179	1.5	1.5
10	211	1.7	1.7
10	231	1.9	1.9
10	255	2.1	2.1
10	299	2.3	2.3
10	319	2.5	2.5
10	351	2.7	2.7
10	371	2.9	2.9
10	395	3.1	3.1
10	439	3.3	3.3
10	459	3.5	3.5
10	491	3.7	3.7
10	511	3.9	3.9
10	535	4.1	4.1
10	579	4.3	4.3
10	599	4.5	4.5
10	631	4.7	4.7
10	651	4.9	4.9
10	675	5.1	5.1
10	719	5.3	5.3
10	739	5.5	5.5
10	771	5.7	5.7
10	791	5.9	5.9
10	815	6.1	6.1
10	859	6.3	6.3
10	879	6.5	6.5
10	911	6.7	6.7
10	931	6.9	6.9
10	955	7.1	7.1
10	999	7.3	7.3
10	1019	7.5	7.5
10	1051	7.7	7.7
10	1071	7.9	7.9
10	1095	8.1	8.1
10	1139	8.3	8.3
10	1159	8.5	8.5
10	1191	8.7	8.7
10	1211	8.9	8.9
10	1235	9.1	9.1
10	1279	9.3	9.3
10	1299	9.5	9.5
10	1331	9.7	9.7
10	1351	9.9	9.9
10	1375	10.1	10.1
10	1419	10.3	10.3
10	1439	10.5	10.5
10	1471	10.7	10.7
10	1491	10.9	10.9
10	1515	11.1	11.1
10	1559	11.3	11.3
10	1579	11.5	11.5
10	1611	11.7	11.7
10	1631	11.9	11.9
10	1643	12.1	12.1
10	1651	12.3	12.3
10	1659	12.5	12.5
10	1667	12.7	12.7
10	1675	12.9	12.9
10	1683	13.1	13.1
10	1691	13.3	13.3
10	1699	13.5	13.5
10	1707	13.7	13.7
10	1715	13.9	13.9
10	1723	14.1	14.1
10	1731	14.3	14.3
10	1739	14.5	14.5
10	1747	14.7	14.7
10	1755	14.9	14.9
10	1763	15.1	15.1
10	1771	15.3	15.3
11	116	1.1	1.1
11	160	1.3	1.3
11	180	1.5	1.5
11	212	1.7	1.7
11	232	1.9	1.9
11	256	2.1	2.1
11	300	2.3	2.3
11	320	2.5	2.5
11	352	2.7	2.7
11	372	2.9	2.9
11	396	3.1	3.1
11	440	3.3	3.3
11	460	3.5	3.5
11	492	3.7	3.7
11	512	3.9	3.9
11	536	4.1	4.1
11	580	4.3	4.3
11	600	4.5	4.5
11	632	4.7	4.7
11	652	4.9	4.9
11	676	5.1	5.1
11	720	5.3	5.3
11	740	5.5	5.5
11	772	5.7	5.7
11	792	5.9	5.9
11	816	6.1	6.1
11	860	6.3	6.3
11	880	6.5	6.5
11	912	6.7	6.7
11	932	6.9	6.9
11	956	7.1	7.1
11	1000	7.3	7.3
11	1020	7.5	7.5
11	1052	7.7	7.7
11	1072	7.9	7.9
11	1096	8.1	8.1
11	1140	8.3	8.3
11	1160	8.5	8.5
11	1192	8.7	8.7
11	1212	8.9	8.9
11	1236	9.1	9.1
11	1280	9.3	9.3
11	1300	9.5	9.5
11	1332	9.7	9.7
11	1352	9.9	9.9
11	1376	10.1	10.1
11	1420	10.3	10.3
11	1440	10.5	10.5
11	1472	10.7	10.7
11	1492	10.9	10.9
11	1516	11.1	11.1
11	1560	11.3	11.3
11	1580	11.5	11.5
11	1612	11.7	11.7
11	1632	11.9	11.9
11	1644	12.1	12.1
11	1652	12.3	12.3
11	1660	12.5	12.5
11	1668	12.7	12.7
11	1676	12.9	12.9
11	1684	13.1	13.1
11	1692	13.3	13.3
11	1700	13.5	13.5
11	1708	13.7	13.7
11	1716	13.9	13.9
11	1724	14.1	14.1
11	1732	14.3	14.3
11	1740	14.5	14.5
11	1748	14.7	14.7
11	1756	14.9	14.9
11	1764	15.1	15.1
11	1772	15.3	15.3
12	141	1.2	1
12	142	1.2	1
12	143	1.2	1
12	161	1.4	1
12	163	1.4	1
12	193	1.6	1
12	225	1.8	1
12	226	1.8	1
12	227	1.8	1
12	246	2	1
12	301	2.4	1
12	302	2.4	1
12	303	2.4	1
12	333	2.6	1
12	365	2.8	1
12	367	2.8	1
12	385	3	1
12	441	3.4	2
12	443	3.4	2
12	507	3.8	2
12	583	4.4	2
12	645	4.8	2
12	647	4.8	2
12	722	5.4	2
12	723	5.4	2
12	786	5.8	2
12	861	6.4	3
12	862	6.4	3
12	893	6.6	3
12	894	6.6	3
12	925	6.8	3
12	926	6.8	3
12	1001	7.4	3
12	1065	7.8	3
12	1141	8.4	3
12	1142	8.4	4
12	1144	8.4	4
12	1205	8.8	4
12	1281	9.4	4
12	1282	9.4	4
12	1345	9.8	4
12	1346	9.8	4
12	1421	10.4	4
12	1422	10.4	5
12	1424	10.4	5
12	1454	10.6	5
12	1485	10.8	5
12	1561	11.4	5
12	1625	11.8	5
12	1626	11.8	5
13	144	1.2	1
13	164	1.4	1
13	195	1.6	1
13	196	1.6	1
13	228	1.8	1
13	245	2	1
13	247	2	1
13	248	2	1
13	284	2.2	1
13	304	2.4	1
13	368	2.8	1
13	444	3.4	2
13	505	3.8	2
13	508	3.8	2
13	581	4.4	2
13	584	4.4	2
13	648	4.8	2
13	665	5	2
13	721	5.4	2
13	724	5.4	3
13	787	5.8	3
13	788	5.8	3
13	807	6	3
13	808	6	3
13	864	6.4	3
13	928	6.8	3
13	945	7	3
13	981	7.2	4
13	1004	7.4	4
13	1068	7.8	4
13	1208	8.8	4
13	1283	9.4	4
13	1284	9.4	4
13	1347	9.8	4
13	1348	9.8	4
13	1487	10.8	5
13	1488	10.8	5
13	1564	11.4	5
13	1593	11.6	5
13	1628	11.8	5
13	1633	12	5
14	162	1.4	1
14	194	1.6	1
14	281	2.2	1
14	282	2.2	1
14	283	2.2	1
14	334	2.6	2
14	335	2.6	2
14	336	2.6	2
14	366	2.8	2
14	386	3	2
14	387	3	2
14	388	3	2
14	421	3.2	2
14	422	3.2	2
14	423	3.2	2
14	424	3.2	2
14	442	3.4	2
14	473	3.6	2
14	474	3.6	2
14	475	3.6	2
14	476	3.6	2
14	506	3.8	2
14	525	4	2
14	526	4	2
14	527	4	3
14	528	4	3
14	561	4.2	3
14	562	4.2	3
14	563	4.2	3
14	564	4.2	3
14	582	4.4	3
14	613	4.6	3
14	614	4.6	3
14	615	4.6	3
14	616	4.6	3
14	646	4.8	3
14	666	5	3
14	667	5	3
14	668	5	3
14	701	5.2	3
14	702	5.2	3
14	703	5.2	3
14	704	5.2	3
14	753	5.6	3
14	754	5.6	3
14	755	5.6	3
14	756	5.6	3
14	785	5.8	3
14	805	6	3
14	806	6	4
14	841	6.2	4
14	842	6.2	4
14	843	6.2	4
14	844	6.2	4
14	863	6.4	4
14	895	6.6	4
14	896	6.6	4
14	927	6.8	4
14	946	7	4
14	947	7	4
14	948	7	4
14	982	7.2	4
14	983	7.2	4
14	984	7.2	4
14	1002	7.4	4
14	1003	7.4	4
14	1033	7.6	4
14	1034	7.6	4
14	1035	7.6	4
14	1036	7.6	4
14	1066	7.8	4
14	1067	7.8	4
14	1085	8	4
14	1086	8	5
14	1087	8	5
14	1088	8	5
14	1121	8.2	5
14	1122	8.2	5
14	1123	8.2	5
14	1124	8.2	5
14	1143	8.4	5
14	1173	8.6	5
14	1174	8.6	5
14	1175	8.6	5
14	1176	8.6	5
14	1206	8.8	5
14	1207	8.8	5
14	1225	9	5
14	1226	9	5
14	1227	9	5
14	1228	9	5
14	1261	9.2	5
14	1262	9.2	5
14	1263	9.2	5
14	1264	9.2	5
14	1313	9.6	5
14	1314	9.6	5
14	1315	9.6	5
14	1316	9.6	5
14	1365	10	6
14	1366	10	6
14	1367	10	6
14	1368	10	6
14	1401	10.2	6
14	1402	10.2	6
14	1403	10.2	6
14	1404	10.2	6
14	1423	10.4	6
14	1453	10.6	6
14	1455	10.6	6
14	1456	10.6	6
14	1486	10.8	6
14	1505	11	6
14	1506	11	6
14	1507	11	6
14	1508	11	6
14	1541	11.2	6
14	1542	11.2	6
14	1543	11.2	6
14	1544	11.2	6
14	1562	11.4	6
14	1563	11.4	6
14	1594	11.6	6
14	1595	11.6	6
14	1596	11.6	6
14	1627	11.8	7
14	1634	12	7
14	1635	12	7
14	1636	12	7
14	1645	12.2	7
14	1646	12.2	7
14	1647	12.2	7
14	1648	12.2	7
14	1653	12.4	7
14	1654	12.4	7
14	1655	12.4	7
14	1656	12.4	7
14	1661	12.6	7
14	1662	12.6	7
14	1663	12.6	7
14	1664	12.6	7
14	1669	12.8	7
14	1670	12.8	7
14	1671	12.8	7
14	1672	12.8	7
14	1677	13	7
14	1678	13	7
14	1679	13	7
14	1680	13	7
14	1685	13.2	7
14	1686	13.2	7
14	1687	13.2	7
14	1688	13.2	7
14	1693	13.4	8
14	1694	13.4	8
14	1695	13.4	8
14	1696	13.4	8
14	1701	13.6	8
14	1702	13.6	8
14	1703	13.6	8
14	1704	13.6	8
14	1709	13.8	8
14	1710	13.8	8
14	1711	13.8	8
14	1712	13.8	8
14	1717	14	8
14	1718	14	8
14	1719	14	8
14	1720	14	8
14	1725	14.2	8
14	1726	14.2	8
14	1727	14.2	8
14	1728	14.2	8
14	1733	14.4	8
14	1734	14.4	8
14	1735	14.4	8
14	1736	14.4	8
14	1741	14.6	8
14	1742	14.6	8
14	1743	14.6	8
14	1744	14.6	8
14	1749	14.8	8
14	1750	14.8	8
14	1751	14.8	9
14	1752	14.8	9
14	1757	15	9
14	1758	15	9
14	1759	15	9
14	1760	15	9
14	1765	15.2	9
14	1766	15.2	9
14	1767	15.2	9
14	1768	15.2	9
14	1773	15.4	9
14	1774	15.4	9
14	1775	15.4	9
14	1776	15.4	9

