version 2
run MicrogridNetwork-0-20180306-15:38:10-11231
attr configname MicrogridNetwork
attr datetime 20180306-15:38:10
attr experiment MicrogridNetwork
attr inifile omnetpp.ini
attr iterationvars ""
attr iterationvarsf ""
attr measurement ""
attr network MicrogridNetwork
attr processid 11231
attr repetition 0
attr replication #0
attr resultdir results
attr runnumber 0
attr seedset 0

vector 0 MicrogridNetwork.pico[0].queue queueLength:vector ETV
attr interpolationmode sample-hold
attr title "queue length, vector"
vector 1 MicrogridNetwork.pico[1].queue queueLength:vector ETV
attr interpolationmode sample-hold
attr title "queue length, vector"
vector 2 MicrogridNetwork.pico[2].queue queueLength:vector ETV
attr interpolationmode sample-hold
attr title "queue length, vector"
vector 3 MicrogridNetwork.pico[3].queue queueLength:vector ETV
attr interpolationmode sample-hold
attr title "queue length, vector"
vector 4 MicrogridNetwork.pico[0].queue queueingTime:vector ETV
attr interpolationmode none
attr title "queueing time at dequeue, vector"
attr unit s
vector 5 MicrogridNetwork.pico[1].queue queueingTime:vector ETV
attr interpolationmode none
attr title "queueing time at dequeue, vector"
attr unit s
vector 6 MicrogridNetwork.pico[2].queue queueingTime:vector ETV
attr interpolationmode none
attr title "queueing time at dequeue, vector"
attr unit s
vector 7 MicrogridNetwork.pico[3].queue queueingTime:vector ETV
attr interpolationmode none
attr title "queueing time at dequeue, vector"
attr unit s
0	0	0	0
0	25	0.1	1
0	26	0.1	2
0	27	0.1	3
0	73	0.6	4
0	74	0.6	5
0	75	0.6	6
0	97	1.1	5
0	113	1.1	6
0	114	1.1	7
0	115	1.1	8
0	141	1.6	7
0	157	1.6	8
0	158	1.6	9
0	159	1.6	10
0	185	2.1	9
0	201	2.1	10
0	202	2.1	11
0	203	2.1	12
1	0	0	0
1	28	0.1	1
1	29	0.1	2
1	30	0.1	3
1	76	0.6	4
1	77	0.6	5
1	78	0.6	6
1	98	1.1	5
1	116	1.1	6
1	117	1.1	7
1	118	1.1	8
1	142	1.6	7
1	160	1.6	8
1	161	1.6	9
1	162	1.6	10
1	186	2.1	9
1	204	2.1	10
1	205	2.1	11
1	206	2.1	12
2	0	0	0
2	31	0.1	1
2	32	0.1	2
2	33	0.1	3
2	79	0.6	4
2	80	0.6	5
2	81	0.6	6
2	99	1.1	5
2	119	1.1	6
2	120	1.1	7
2	121	1.1	8
2	143	1.6	7
2	163	1.6	8
2	164	1.6	9
2	165	1.6	10
2	187	2.1	9
2	207	2.1	10
2	208	2.1	11
2	209	2.1	12
3	0	0	0
3	34	0.1	1
3	35	0.1	2
3	36	0.1	3
3	82	0.6	4
3	83	0.6	5
3	84	0.6	6
3	100	1.1	5
3	122	1.1	6
3	123	1.1	7
3	124	1.1	8
3	144	1.6	7
3	166	1.6	8
3	167	1.6	9
3	168	1.6	10
3	188	2.1	9
3	210	2.1	10
3	211	2.1	11
3	212	2.1	12
4	97	1.1	1.1
4	141	1.6	1.6
4	185	2.1	2.1
5	98	1.1	1.1
5	142	1.6	1.6
5	186	2.1	2.1
6	99	1.1	1.1
6	143	1.6	1.6
6	187	2.1	2.1
7	100	1.1	1.1
7	144	1.6	1.6
7	188	2.1	2.1
0	229	2.6	11
0	245	2.6	12
0	246	2.6	13
0	247	2.6	14
0	277	3.1	13
0	293	3.1	14
0	294	3.1	15
0	295	3.1	16
1	230	2.6	11
1	248	2.6	12
1	249	2.6	13
1	250	2.6	14
1	278	3.1	13
1	296	3.1	14
1	297	3.1	15
1	298	3.1	16
2	231	2.6	11
2	251	2.6	12
2	252	2.6	13
2	253	2.6	14
2	279	3.1	13
2	299	3.1	14
2	300	3.1	15
2	301	3.1	16
3	232	2.6	11
3	254	2.6	12
3	255	2.6	13
3	256	2.6	14
3	280	3.1	13
3	302	3.1	14
3	303	3.1	15
3	304	3.1	16
4	229	2.6	2.6
4	277	3.1	3.1
5	230	2.6	2.6
5	278	3.1	3.1
6	231	2.6	2.6
6	279	3.1	3.1
7	232	2.6	2.6
7	280	3.1	3.1
0	333	3.6	15
0	349	3.6	16
0	350	3.6	17
0	351	3.6	18
0	377	4.1	17
0	393	4.1	18
0	394	4.1	19
0	395	4.1	20
0	421	4.6	19
0	437	4.6	20
0	438	4.6	21
0	439	4.6	22
0	465	5.1	21
0	481	5.1	22
0	482	5.1	23
0	483	5.1	24
0	509	5.6	23
0	525	5.6	24
0	526	5.6	25
0	527	5.6	26
0	557	6.1	25
0	573	6.1	26
0	574	6.1	27
0	575	6.1	28
0	613	6.6	27
0	629	6.6	28
0	630	6.6	29
0	631	6.6	30
0	657	7.1	29
0	673	7.1	30
0	674	7.1	31
0	675	7.1	32
0	701	7.6	31
0	717	7.6	32
0	718	7.6	33
0	719	7.6	34
0	745	8.1	33
0	761	8.1	34
0	762	8.1	35
0	763	8.1	36
0	789	8.6	35
0	805	8.6	36
0	806	8.6	37
0	807	8.6	38
0	837	9.1	37
0	853	9.1	38
0	854	9.1	39
0	855	9.1	40
0	893	9.6	39
0	909	9.6	40
0	910	9.6	41
0	911	9.6	42
0	937	10.1	41
0	953	10.1	42
0	954	10.1	43
0	955	10.1	44
0	981	10.6	43
0	997	10.6	44
0	998	10.6	45
0	999	10.6	46
0	1025	11.1	45
0	1041	11.1	46
0	1042	11.1	47
0	1043	11.1	48
0	1069	11.6	47
0	1085	11.6	48
0	1086	11.6	49
0	1087	11.6	50
0	1105	12.1	49
0	1113	12.6	48
0	1121	13.1	47
0	1129	13.6	46
0	1137	14.1	45
0	1145	14.6	44
0	1153	15.1	43
0	1161	15.6	42
0	1169	16.1	41
0	1177	16.6	40
0	1185	17.1	39
0	1193	17.6	38
0	1201	18.1	37
0	1209	18.6	36
0	1217	19.1	35
0	1225	19.6	34
0	1233	20.1	33
0	1241	20.6	32
0	1249	21.1	31
0	1257	21.6	30
0	1265	22.1	29
0	1273	22.6	28
0	1281	23.1	27
0	1289	23.6	26
0	1297	24.1	25
0	1305	24.6	24
0	1313	25.1	23
0	1321	25.6	22
0	1329	26.1	21
0	1337	26.6	20
0	1345	27.1	19
0	1353	27.6	18
0	1361	28.1	17
0	1369	28.6	16
0	1377	29.1	15
0	1385	29.6	14
0	1393	30.1	13
0	1401	30.6	12
0	1409	31.1	11
0	1417	31.6	10
0	1425	32.1	9
0	1433	32.6	8
0	1441	33.1	7
0	1449	33.6	6
0	1457	34.1	5
0	1465	34.6	4
0	1473	35.1	3
0	1481	35.6	2
0	1489	36.1	1
0	1497	36.6	0
1	334	3.6	15
1	352	3.6	16
1	353	3.6	17
1	354	3.6	18
1	378	4.1	17
1	396	4.1	18
1	397	4.1	19
1	398	4.1	20
1	422	4.6	19
1	440	4.6	20
1	441	4.6	21
1	442	4.6	22
1	466	5.1	21
1	484	5.1	22
1	485	5.1	23
1	486	5.1	24
1	510	5.6	23
1	528	5.6	24
1	529	5.6	25
1	530	5.6	26
1	558	6.1	25
1	576	6.1	26
1	577	6.1	27
1	578	6.1	28
1	614	6.6	27
1	632	6.6	28
1	633	6.6	29
1	634	6.6	30
1	658	7.1	29
1	676	7.1	30
1	677	7.1	31
1	678	7.1	32
1	702	7.6	31
1	720	7.6	32
1	721	7.6	33
1	722	7.6	34
1	746	8.1	33
1	764	8.1	34
1	765	8.1	35
1	766	8.1	36
1	790	8.6	35
1	808	8.6	36
1	809	8.6	37
1	810	8.6	38
1	838	9.1	37
1	856	9.1	38
1	857	9.1	39
1	858	9.1	40
1	894	9.6	39
1	912	9.6	40
1	913	9.6	41
1	914	9.6	42
1	938	10.1	41
1	956	10.1	42
1	957	10.1	43
1	958	10.1	44
1	982	10.6	43
1	1000	10.6	44
1	1001	10.6	45
1	1002	10.6	46
1	1026	11.1	45
1	1044	11.1	46
1	1045	11.1	47
1	1046	11.1	48
1	1070	11.6	47
1	1088	11.6	48
1	1089	11.6	49
1	1090	11.6	50
1	1106	12.1	49
1	1114	12.6	48
1	1122	13.1	47
1	1130	13.6	46
1	1138	14.1	45
1	1146	14.6	44
1	1154	15.1	43
1	1162	15.6	42
1	1170	16.1	41
1	1178	16.6	40
1	1186	17.1	39
1	1194	17.6	38
1	1202	18.1	37
1	1210	18.6	36
1	1218	19.1	35
1	1226	19.6	34
1	1234	20.1	33
1	1242	20.6	32
1	1250	21.1	31
1	1258	21.6	30
1	1266	22.1	29
1	1274	22.6	28
1	1282	23.1	27
1	1290	23.6	26
1	1298	24.1	25
1	1306	24.6	24
1	1314	25.1	23
1	1322	25.6	22
1	1330	26.1	21
1	1338	26.6	20
1	1346	27.1	19
1	1354	27.6	18
1	1362	28.1	17
1	1370	28.6	16
1	1378	29.1	15
1	1386	29.6	14
1	1394	30.1	13
1	1402	30.6	12
1	1410	31.1	11
1	1418	31.6	10
1	1426	32.1	9
1	1434	32.6	8
1	1442	33.1	7
1	1450	33.6	6
1	1458	34.1	5
1	1466	34.6	4
1	1474	35.1	3
1	1482	35.6	2
1	1490	36.1	1
1	1498	36.6	0
2	335	3.6	15
2	355	3.6	16
2	356	3.6	17
2	357	3.6	18
2	379	4.1	17
2	399	4.1	18
2	400	4.1	19
2	401	4.1	20
2	423	4.6	19
2	443	4.6	20
2	444	4.6	21
2	445	4.6	22
2	467	5.1	21
2	487	5.1	22
2	488	5.1	23
2	489	5.1	24
2	511	5.6	23
2	531	5.6	24
2	532	5.6	25
2	533	5.6	26
2	559	6.1	25
2	579	6.1	26
2	580	6.1	27
2	581	6.1	28
2	615	6.6	27
2	635	6.6	28
2	636	6.6	29
2	637	6.6	30
2	659	7.1	29
2	679	7.1	30
2	680	7.1	31
2	681	7.1	32
2	703	7.6	31
2	723	7.6	32
2	724	7.6	33
2	725	7.6	34
2	747	8.1	33
2	767	8.1	34
2	768	8.1	35
2	769	8.1	36
2	791	8.6	35
2	811	8.6	36
2	812	8.6	37
2	813	8.6	38
2	839	9.1	37
2	859	9.1	38
2	860	9.1	39
2	861	9.1	40
2	895	9.6	39
2	915	9.6	40
2	916	9.6	41
2	917	9.6	42
2	939	10.1	41
2	959	10.1	42
2	960	10.1	43
2	961	10.1	44
2	983	10.6	43
2	1003	10.6	44
2	1004	10.6	45
2	1005	10.6	46
2	1027	11.1	45
2	1047	11.1	46
2	1048	11.1	47
2	1049	11.1	48
2	1071	11.6	47
2	1091	11.6	48
2	1092	11.6	49
2	1093	11.6	50
2	1107	12.1	49
2	1115	12.6	48
2	1123	13.1	47
2	1131	13.6	46
2	1139	14.1	45
2	1147	14.6	44
2	1155	15.1	43
2	1163	15.6	42
2	1171	16.1	41
2	1179	16.6	40
2	1187	17.1	39
2	1195	17.6	38
2	1203	18.1	37
2	1211	18.6	36
2	1219	19.1	35
2	1227	19.6	34
2	1235	20.1	33
2	1243	20.6	32
2	1251	21.1	31
2	1259	21.6	30
2	1267	22.1	29
2	1275	22.6	28
2	1283	23.1	27
2	1291	23.6	26
2	1299	24.1	25
2	1307	24.6	24
2	1315	25.1	23
2	1323	25.6	22
2	1331	26.1	21
2	1339	26.6	20
2	1347	27.1	19
2	1355	27.6	18
2	1363	28.1	17
2	1371	28.6	16
2	1379	29.1	15
2	1387	29.6	14
2	1395	30.1	13
2	1403	30.6	12
2	1411	31.1	11
2	1419	31.6	10
2	1427	32.1	9
2	1435	32.6	8
2	1443	33.1	7
2	1451	33.6	6
2	1459	34.1	5
2	1467	34.6	4
2	1475	35.1	3
2	1483	35.6	2
2	1491	36.1	1
2	1499	36.6	0
3	336	3.6	15
3	358	3.6	16
3	359	3.6	17
3	360	3.6	18
3	380	4.1	17
3	402	4.1	18
3	403	4.1	19
3	404	4.1	20
3	424	4.6	19
3	446	4.6	20
3	447	4.6	21
3	448	4.6	22
3	468	5.1	21
3	490	5.1	22
3	491	5.1	23
3	492	5.1	24
3	512	5.6	23
3	534	5.6	24
3	535	5.6	25
3	536	5.6	26
3	560	6.1	25
3	582	6.1	26
3	583	6.1	27
3	584	6.1	28
3	616	6.6	27
3	638	6.6	28
3	639	6.6	29
3	640	6.6	30
3	660	7.1	29
3	682	7.1	30
3	683	7.1	31
3	684	7.1	32
3	704	7.6	31
3	726	7.6	32
3	727	7.6	33
3	728	7.6	34
3	748	8.1	33
3	770	8.1	34
3	771	8.1	35
3	772	8.1	36
3	792	8.6	35
3	814	8.6	36
3	815	8.6	37
3	816	8.6	38
3	840	9.1	37
3	862	9.1	38
3	863	9.1	39
3	864	9.1	40
3	896	9.6	39
3	918	9.6	40
3	919	9.6	41
3	920	9.6	42
3	940	10.1	41
3	962	10.1	42
3	963	10.1	43
3	964	10.1	44
3	984	10.6	43
3	1006	10.6	44
3	1007	10.6	45
3	1008	10.6	46
3	1028	11.1	45
3	1050	11.1	46
3	1051	11.1	47
3	1052	11.1	48
3	1072	11.6	47
3	1094	11.6	48
3	1095	11.6	49
3	1096	11.6	50
3	1108	12.1	49
3	1116	12.6	48
3	1124	13.1	47
3	1132	13.6	46
3	1140	14.1	45
3	1148	14.6	44
3	1156	15.1	43
3	1164	15.6	42
3	1172	16.1	41
3	1180	16.6	40
3	1188	17.1	39
3	1196	17.6	38
3	1204	18.1	37
3	1212	18.6	36
3	1220	19.1	35
3	1228	19.6	34
3	1236	20.1	33
3	1244	20.6	32
3	1252	21.1	31
3	1260	21.6	30
3	1268	22.1	29
3	1276	22.6	28
3	1284	23.1	27
3	1292	23.6	26
3	1300	24.1	25
3	1308	24.6	24
3	1316	25.1	23
3	1324	25.6	22
3	1332	26.1	21
3	1340	26.6	20
3	1348	27.1	19
3	1356	27.6	18
3	1364	28.1	17
3	1372	28.6	16
3	1380	29.1	15
3	1388	29.6	14
3	1396	30.1	13
3	1404	30.6	12
3	1412	31.1	11
3	1420	31.6	10
3	1428	32.1	9
3	1436	32.6	8
3	1444	33.1	7
3	1452	33.6	6
3	1460	34.1	5
3	1468	34.6	4
3	1476	35.1	3
3	1484	35.6	2
3	1492	36.1	1
3	1500	36.6	0
4	333	3.6	3.6
4	377	4.1	4.1
4	421	4.6	4.6
4	465	5.1	5.1
4	509	5.6	5.6
4	557	6.1	6.1
4	613	6.6	6.6
4	657	7.1	7.1
4	701	7.6	7.6
4	745	8.1	8.1
4	789	8.6	8.6
4	837	9.1	9.1
4	893	9.6	9.6
4	937	10.1	10.1
4	981	10.6	10.6
4	1025	11.1	11.1
4	1069	11.6	11.6
4	1105	12.1	12.1
4	1113	12.6	12.6
4	1121	13.1	13.1
4	1129	13.6	13.6
4	1137	14.1	14.1
4	1145	14.6	14.6
4	1153	15.1	15.1
4	1161	15.6	15.6
4	1169	16.1	16.1
4	1177	16.6	16.6
4	1185	17.1	17.1
4	1193	17.6	17.6
4	1201	18.1	18.1
4	1209	18.6	18.6
4	1217	19.1	19.1
4	1225	19.6	19.6
4	1233	20.1	20.1
4	1241	20.6	20.6
4	1249	21.1	21.1
4	1257	21.6	21.6
4	1265	22.1	22.1
4	1273	22.6	22.6
4	1281	23.1	23.1
4	1289	23.6	23.6
4	1297	24.1	24.1
4	1305	24.6	24.6
4	1313	25.1	25.1
4	1321	25.6	25.6
4	1329	26.1	26.1
4	1337	26.6	26.6
4	1345	27.1	27.1
4	1353	27.6	27.6
4	1361	28.1	28.1
4	1369	28.6	28.6
4	1377	29.1	29.1
4	1385	29.6	29.6
4	1393	30.1	30.1
4	1401	30.6	30.6
4	1409	31.1	31.1
4	1417	31.6	31.6
4	1425	32.1	32.1
4	1433	32.6	32.6
4	1441	33.1	33.1
4	1449	33.6	33.6
4	1457	34.1	34.1
4	1465	34.6	34.6
4	1473	35.1	35.1
4	1481	35.6	35.6
4	1489	36.1	36.1
4	1497	36.6	36.6
5	334	3.6	3.6
5	378	4.1	4.1
5	422	4.6	4.6
5	466	5.1	5.1
5	510	5.6	5.6
5	558	6.1	6.1
5	614	6.6	6.6
5	658	7.1	7.1
5	702	7.6	7.6
5	746	8.1	8.1
5	790	8.6	8.6
5	838	9.1	9.1
5	894	9.6	9.6
5	938	10.1	10.1
5	982	10.6	10.6
5	1026	11.1	11.1
5	1070	11.6	11.6
5	1106	12.1	12.1
5	1114	12.6	12.6
5	1122	13.1	13.1
5	1130	13.6	13.6
5	1138	14.1	14.1
5	1146	14.6	14.6
5	1154	15.1	15.1
5	1162	15.6	15.6
5	1170	16.1	16.1
5	1178	16.6	16.6
5	1186	17.1	17.1
5	1194	17.6	17.6
5	1202	18.1	18.1
5	1210	18.6	18.6
5	1218	19.1	19.1
5	1226	19.6	19.6
5	1234	20.1	20.1
5	1242	20.6	20.6
5	1250	21.1	21.1
5	1258	21.6	21.6
5	1266	22.1	22.1
5	1274	22.6	22.6
5	1282	23.1	23.1
5	1290	23.6	23.6
5	1298	24.1	24.1
5	1306	24.6	24.6
5	1314	25.1	25.1
5	1322	25.6	25.6
5	1330	26.1	26.1
5	1338	26.6	26.6
5	1346	27.1	27.1
5	1354	27.6	27.6
5	1362	28.1	28.1
5	1370	28.6	28.6
5	1378	29.1	29.1
5	1386	29.6	29.6
5	1394	30.1	30.1
5	1402	30.6	30.6
5	1410	31.1	31.1
5	1418	31.6	31.6
5	1426	32.1	32.1
5	1434	32.6	32.6
5	1442	33.1	33.1
5	1450	33.6	33.6
5	1458	34.1	34.1
5	1466	34.6	34.6
5	1474	35.1	35.1
5	1482	35.6	35.6
5	1490	36.1	36.1
5	1498	36.6	36.6
6	335	3.6	3.6
6	379	4.1	4.1
6	423	4.6	4.6
6	467	5.1	5.1
6	511	5.6	5.6
6	559	6.1	6.1
6	615	6.6	6.6
6	659	7.1	7.1
6	703	7.6	7.6
6	747	8.1	8.1
6	791	8.6	8.6
6	839	9.1	9.1
6	895	9.6	9.6
6	939	10.1	10.1
6	983	10.6	10.6
6	1027	11.1	11.1
6	1071	11.6	11.6
6	1107	12.1	12.1
6	1115	12.6	12.6
6	1123	13.1	13.1
6	1131	13.6	13.6
6	1139	14.1	14.1
6	1147	14.6	14.6
6	1155	15.1	15.1
6	1163	15.6	15.6
6	1171	16.1	16.1
6	1179	16.6	16.6
6	1187	17.1	17.1
6	1195	17.6	17.6
6	1203	18.1	18.1
6	1211	18.6	18.6
6	1219	19.1	19.1
6	1227	19.6	19.6
6	1235	20.1	20.1
6	1243	20.6	20.6
6	1251	21.1	21.1
6	1259	21.6	21.6
6	1267	22.1	22.1
6	1275	22.6	22.6
6	1283	23.1	23.1
6	1291	23.6	23.6
6	1299	24.1	24.1
6	1307	24.6	24.6
6	1315	25.1	25.1
6	1323	25.6	25.6
6	1331	26.1	26.1
6	1339	26.6	26.6
6	1347	27.1	27.1
6	1355	27.6	27.6
6	1363	28.1	28.1
6	1371	28.6	28.6
6	1379	29.1	29.1
6	1387	29.6	29.6
6	1395	30.1	30.1
6	1403	30.6	30.6
6	1411	31.1	31.1
6	1419	31.6	31.6
6	1427	32.1	32.1
6	1435	32.6	32.6
6	1443	33.1	33.1
6	1451	33.6	33.6
6	1459	34.1	34.1
6	1467	34.6	34.6
6	1475	35.1	35.1
6	1483	35.6	35.6
6	1491	36.1	36.1
6	1499	36.6	36.6
7	336	3.6	3.6
7	380	4.1	4.1
7	424	4.6	4.6
7	468	5.1	5.1
7	512	5.6	5.6
7	560	6.1	6.1
7	616	6.6	6.6
7	660	7.1	7.1
7	704	7.6	7.6
7	748	8.1	8.1
7	792	8.6	8.6
7	840	9.1	9.1
7	896	9.6	9.6
7	940	10.1	10.1
7	984	10.6	10.6
7	1028	11.1	11.1
7	1072	11.6	11.6
7	1108	12.1	12.1
7	1116	12.6	12.6
7	1124	13.1	13.1
7	1132	13.6	13.6
7	1140	14.1	14.1
7	1148	14.6	14.6
7	1156	15.1	15.1
7	1164	15.6	15.6
7	1172	16.1	16.1
7	1180	16.6	16.6
7	1188	17.1	17.1
7	1196	17.6	17.6
7	1204	18.1	18.1
7	1212	18.6	18.6
7	1220	19.1	19.1
7	1228	19.6	19.6
7	1236	20.1	20.1
7	1244	20.6	20.6
7	1252	21.1	21.1
7	1260	21.6	21.6
7	1268	22.1	22.1
7	1276	22.6	22.6
7	1284	23.1	23.1
7	1292	23.6	23.6
7	1300	24.1	24.1
7	1308	24.6	24.6
7	1316	25.1	25.1
7	1324	25.6	25.6
7	1332	26.1	26.1
7	1340	26.6	26.6
7	1348	27.1	27.1
7	1356	27.6	27.6
7	1364	28.1	28.1
7	1372	28.6	28.6
7	1380	29.1	29.1
7	1388	29.6	29.6
7	1396	30.1	30.1
7	1404	30.6	30.6
7	1412	31.1	31.1
7	1420	31.6	31.6
7	1428	32.1	32.1
7	1436	32.6	32.6
7	1444	33.1	33.1
7	1452	33.6	33.6
7	1460	34.1	34.1
7	1468	34.6	34.6
7	1476	35.1	35.1
7	1484	35.6	35.6
7	1492	36.1	36.1
7	1500	36.6	36.6

