version 2
run NaiveUniformMicrogridNetwork-0-20180504-02:27:41-16667
attr configname NaiveUniformMicrogridNetwork
attr datetime 20180504-02:27:41
attr experiment NaiveUniformMicrogridNetwork
attr inifile omnetpp.ini
attr iterationvars ""
attr iterationvarsf ""
attr measurement ""
attr network NaiveUniformMicrogridNetwork
attr processid 16667
attr repetition 0
attr replication #0
attr resultdir results
attr runnumber 0
attr seedset 0

vector 0 NaiveUniformMicrogridNetwork.macro[0] timeSensitiveQueueMsgTime:vector ETV
attr interpolationmode sample-hold
attr title "timeSensitiveQueueMsgTime, vector"
vector 1 NaiveUniformMicrogridNetwork.macro[0] timeTolerantQueueMsgTime:vector ETV
attr interpolationmode sample-hold
attr title "timeTolerantQueueMsgTime, vector"
vector 2 NaiveUniformMicrogridNetwork.macro[0] timeMediumQueueMsgTime:vector ETV
attr interpolationmode sample-hold
attr title "timeMediumQueueMsgTime, vector"
0	98	0.2	0
0	112	0.2	0
0	152	0.2	0
0	158	0.2	0
0	164	0.2	0
0	172	0.2	0
0	178	0.2	0
0	184	0.2	0
0	190	0.2	0
0	290	0.7	0
0	298	0.7	0
0	344	0.7	0
0	350	0.7	0
0	356	0.7	0
0	370	0.7	0
0	376	0.7	0
0	486	1.2	0
0	502	1.2	0
0	506	1.2	0
0	540	1.2	0
0	546	1.2	0
0	556	1.2	0
0	560	1.2	0
0	566	1.2	0
0	572	1.2	0
0	578	1.2	0
0	678	1.7	0
0	686	1.7	0
0	694	1.7	0
0	702	1.7	0
0	704	1.7	0
0	732	1.7	0
0	752	1.7	0
0	758	1.7	0
0	764	1.7	0
0	874	2.2	1
0	876	2.2	1
0	890	2.2	1
0	906	2.2	1
0	934	2.2	1
0	940	2.2	1
0	942	2.2	1
0	954	2.2	1
0	960	2.2	1
0	1066	2.7	1
0	1068	2.7	1
0	1082	2.7	1
0	1120	2.7	1
0	1132	2.7	1
0	1136	2.7	1
0	1140	2.7	1
0	1146	2.7	1
0	1152	2.7	1
0	1158	2.7	1
0	1262	3.2	1
0	1278	3.2	1
0	1302	3.2	1
0	1316	3.2	1
0	1320	3.2	1
0	1322	3.2	1
0	1330	3.2	1
0	1332	3.2	1
0	1342	3.2	1
0	1348	3.2	1
0	1470	3.7	1
0	1494	3.7	1
0	1508	3.7	1
0	1514	3.7	1
0	1524	3.7	1
0	1534	3.7	1
0	1540	3.7	1
0	1666	4.2	1
0	1676	4.2	2
0	1690	4.2	2
0	1708	4.2	2
0	1710	4.2	2
0	1720	4.2	2
0	1730	4.2	2
0	1732	4.2	2
0	1736	4.2	2
0	1742	4.2	2
0	1844	4.7	2
0	1858	4.7	2
0	1882	4.7	2
0	1888	4.7	2
0	1912	4.7	2
0	1922	4.7	2
0	1924	4.7	2
0	1928	4.7	2
0	2046	5.2	2
0	2054	5.2	2
0	2078	5.2	2
0	2084	5.2	2
0	2096	5.2	2
0	2104	5.2	2
0	2108	5.2	2
0	2118	5.2	2
0	2124	5.2	2
0	2132	5.2	2
0	2236	5.7	2
0	2250	5.7	2
0	2270	5.7	2
0	2276	5.7	2
0	2288	5.7	2
0	2290	5.7	2
0	2296	5.7	2
0	2300	5.7	2
0	2310	5.7	2
0	2316	5.7	3
0	2322	5.7	3
0	2324	5.7	3
0	2426	6.2	3
0	2428	6.2	3
0	2432	6.2	3
0	2452	6.2	3
0	2466	6.2	3
0	2480	6.2	3
0	2482	6.2	3
0	2486	6.2	3
0	2492	6.2	3
0	2494	6.2	3
0	2506	6.2	3
0	2508	6.2	3
0	2512	6.2	3
0	2518	6.2	3
0	2618	6.7	3
0	2624	6.7	3
0	2660	6.7	3
0	2670	6.7	3
0	2672	6.7	3
0	2684	6.7	3
0	2688	6.7	3
0	2698	6.7	3
0	2704	6.7	3
0	2814	7.2	3
0	2850	7.2	3
0	2856	7.2	3
0	2866	7.2	3
0	2868	7.2	3
0	2874	7.2	3
0	2880	7.2	3
0	2894	7.2	3
0	2900	7.2	3
0	2906	7.2	3
0	3006	7.7	3
0	3032	7.7	3
0	3048	7.7	3
0	3060	7.7	3
0	3066	7.7	4
0	3072	7.7	4
0	3086	7.7	4
0	3092	7.7	4
0	3098	7.7	4
0	3202	8.2	4
0	3210	8.2	4
0	3222	8.2	4
0	3228	8.2	4
0	3254	8.2	4
0	3262	8.2	4
0	3268	8.2	4
0	3282	8.2	4
0	3288	8.2	4
0	3294	8.2	4
0	3394	8.7	4
0	3454	8.7	4
0	3460	8.7	4
0	3470	8.7	4
0	3474	8.7	4
0	3480	8.7	4
0	3590	9.2	4
0	3616	9.2	4
0	3644	9.2	4
0	3656	9.2	4
0	3670	9.2	4
0	3676	9.2	4
0	3782	9.7	4
0	3792	9.7	4
0	3808	9.7	4
0	3842	9.7	4
0	3848	9.7	4
0	3850	9.7	4
0	3852	9.7	4
0	3868	9.7	4
0	3874	9.7	4
0	3978	10.2	4
0	3986	10.2	4
0	3988	10.2	4
0	3998	10.2	5
0	4038	10.2	5
0	4044	10.2	5
0	4064	10.2	5
0	4070	10.2	5
0	4170	10.7	5
0	4224	10.7	5
0	4230	10.7	5
0	4256	10.7	5
0	4262	10.7	5
0	4366	11.2	5
0	4392	11.2	5
0	4420	11.2	5
0	4426	11.2	5
0	4430	11.2	5
0	4450	11.2	5
0	4452	11.2	5
0	4558	11.7	5
0	4584	11.7	5
0	4612	11.7	5
0	4618	11.7	5
0	4624	11.7	5
0	4626	11.7	5
0	4628	11.7	5
0	4638	11.7	5
0	4644	11.7	5
1	100	0.2	0
1	102	0.2	0
1	104	0.2	0
1	106	0.2	0
1	108	0.2	0
1	110	0.2	0
1	114	0.2	0
1	116	0.2	0
1	120	0.2	0
1	122	0.2	0
1	124	0.2	0
1	126	0.2	0
1	128	0.2	0
1	130	0.2	0
1	132	0.2	0
1	134	0.2	0
1	136	0.2	0
1	138	0.2	0
1	140	0.2	0
1	142	0.2	0
1	144	0.2	0
1	146	0.2	0
1	148	0.2	0
1	150	0.2	0
1	154	0.2	0
1	156	0.2	0
1	160	0.2	0
1	162	0.2	0
1	170	0.2	0
1	174	0.2	0
1	176	0.2	0
1	180	0.2	0
1	182	0.2	0
1	186	0.2	0
1	188	0.2	0
1	192	0.2	0
1	292	0.7	0
1	296	0.7	0
1	300	0.7	0
1	302	0.7	0
1	304	0.7	0
1	308	0.7	0
1	314	0.7	0
1	316	0.7	0
1	318	0.7	0
1	320	0.7	0
1	322	0.7	0
1	324	0.7	0
1	326	0.7	0
1	328	0.7	0
1	330	0.7	0
1	332	0.7	0
1	334	0.7	0
1	336	0.7	0
1	338	0.7	0
1	340	0.7	0
1	342	0.7	0
1	346	0.7	0
1	348	0.7	0
1	352	0.7	0
1	354	0.7	0
1	362	0.7	0
1	364	0.7	0
1	366	0.7	0
1	368	0.7	0
1	372	0.7	0
1	374	0.7	0
1	378	0.7	0
1	382	0.7	0
1	384	0.7	0
1	488	1.2	0
1	490	1.2	0
1	492	1.2	0
1	496	1.2	0
1	498	1.2	0
1	500	1.2	0
1	504	1.2	0
1	510	1.2	0
1	512	1.2	0
1	514	1.2	0
1	516	1.2	0
1	518	1.2	0
1	520	1.2	0
1	522	1.2	0
1	524	1.2	0
1	526	1.2	0
1	528	1.2	0
1	530	1.2	0
1	532	1.2	0
1	534	1.2	0
1	536	1.2	0
1	542	1.2	0
1	548	1.2	0
1	550	1.2	0
1	554	1.2	0
1	558	1.2	0
1	564	1.2	0
1	570	1.2	0
1	574	1.2	0
1	580	1.2	0
1	680	1.7	0
1	682	1.7	0
1	684	1.7	0
1	692	1.7	0
1	696	1.7	0
1	700	1.7	0
1	706	1.7	0
1	708	1.7	0
1	710	1.7	0
1	712	1.7	0
1	714	1.7	0
1	716	1.7	0
1	718	1.7	0
1	720	1.7	0
1	722	1.7	0
1	724	1.7	0
1	726	1.7	0
1	728	1.7	0
1	730	1.7	0
1	734	1.7	0
1	736	1.7	0
1	742	1.7	0
1	744	1.7	0
1	746	1.7	0
1	750	1.7	0
1	756	1.7	0
1	760	1.7	0
1	762	1.7	0
1	768	1.7	0
1	770	1.7	0
1	772	1.7	0
1	878	2.2	0
1	880	2.2	0
1	884	2.2	0
1	886	2.2	0
1	888	2.2	0
1	892	2.2	0
1	896	2.2	0
1	898	2.2	0
1	900	2.2	0
1	902	2.2	1
1	904	2.2	1
1	908	2.2	1
1	910	2.2	1
1	912	2.2	1
1	914	2.2	1
1	916	2.2	1
1	918	2.2	1
1	920	2.2	1
1	922	2.2	1
1	924	2.2	1
1	926	2.2	1
1	928	2.2	1
1	930	2.2	1
1	938	2.2	1
1	944	2.2	1
1	946	2.2	1
1	948	2.2	1
1	950	2.2	1
1	952	2.2	1
1	956	2.2	1
1	958	2.2	1
1	962	2.2	1
1	964	2.2	1
1	966	2.2	1
1	968	2.2	1
1	1070	2.7	1
1	1072	2.7	1
1	1076	2.7	1
1	1078	2.7	1
1	1080	2.7	1
1	1084	2.7	1
1	1088	2.7	1
1	1090	2.7	1
1	1092	2.7	1
1	1094	2.7	1
1	1096	2.7	1
1	1098	2.7	1
1	1100	2.7	1
1	1102	2.7	1
1	1104	2.7	1
1	1106	2.7	1
1	1108	2.7	1
1	1110	2.7	1
1	1112	2.7	1
1	1114	2.7	1
1	1116	2.7	1
1	1122	2.7	1
1	1124	2.7	1
1	1128	2.7	1
1	1130	2.7	1
1	1134	2.7	1
1	1138	2.7	1
1	1144	2.7	1
1	1148	2.7	1
1	1150	2.7	1
1	1154	2.7	1
1	1156	2.7	1
1	1160	2.7	1
1	1264	3.2	1
1	1266	3.2	1
1	1270	3.2	1
1	1272	3.2	1
1	1276	3.2	1
1	1280	3.2	1
1	1284	3.2	1
1	1286	3.2	1
1	1288	3.2	1
1	1290	3.2	1
1	1292	3.2	1
1	1294	3.2	1
1	1296	3.2	1
1	1298	3.2	1
1	1300	3.2	1
1	1304	3.2	1
1	1306	3.2	1
1	1308	3.2	1
1	1310	3.2	1
1	1312	3.2	1
1	1318	3.2	1
1	1324	3.2	1
1	1326	3.2	1
1	1334	3.2	1
1	1336	3.2	1
1	1340	3.2	1
1	1344	3.2	1
1	1346	3.2	1
1	1350	3.2	1
1	1352	3.2	1
1	1354	3.2	1
1	1356	3.2	1
1	1456	3.7	1
1	1458	3.7	1
1	1460	3.7	1
1	1464	3.7	1
1	1466	3.7	1
1	1468	3.7	1
1	1476	3.7	1
1	1478	3.7	1
1	1480	3.7	1
1	1482	3.7	1
1	1484	3.7	1
1	1486	3.7	1
1	1488	3.7	1
1	1490	3.7	1
1	1492	3.7	1
1	1496	3.7	1
1	1498	3.7	1
1	1500	3.7	1
1	1502	3.7	1
1	1504	3.7	1
1	1506	3.7	1
1	1510	3.7	1
1	1516	3.7	1
1	1518	3.7	1
1	1520	3.7	1
1	1522	3.7	1
1	1526	3.7	1
1	1528	3.7	1
1	1530	3.7	1
1	1532	3.7	1
1	1536	3.7	1
1	1538	3.7	1
1	1542	3.7	1
1	1544	3.7	1
1	1546	3.7	1
1	1548	3.7	1
1	1652	4.2	1
1	1654	4.2	1
1	1656	4.2	1
1	1658	4.2	1
1	1660	4.2	1
1	1662	4.2	2
1	1664	4.2	2
1	1668	4.2	2
1	1672	4.2	2
1	1674	4.2	2
1	1678	4.2	2
1	1680	4.2	2
1	1682	4.2	2
1	1684	4.2	2
1	1686	4.2	2
1	1688	4.2	2
1	1692	4.2	2
1	1694	4.2	2
1	1696	4.2	2
1	1698	4.2	2
1	1700	4.2	2
1	1702	4.2	2
1	1704	4.2	2
1	1706	4.2	2
1	1712	4.2	2
1	1714	4.2	2
1	1716	4.2	2
1	1722	4.2	2
1	1724	4.2	2
1	1728	4.2	2
1	1734	4.2	2
1	1738	4.2	2
1	1740	4.2	2
1	1744	4.2	2
1	1846	4.7	2
1	1848	4.7	2
1	1850	4.7	2
1	1852	4.7	2
1	1854	4.7	2
1	1856	4.7	2
1	1860	4.7	2
1	1864	4.7	2
1	1866	4.7	2
1	1868	4.7	2
1	1870	4.7	2
1	1872	4.7	2
1	1874	4.7	2
1	1876	4.7	2
1	1878	4.7	2
1	1880	4.7	2
1	1884	4.7	2
1	1886	4.7	2
1	1890	4.7	2
1	1892	4.7	2
1	1894	4.7	2
1	1898	4.7	2
1	1904	4.7	2
1	1906	4.7	2
1	1908	4.7	2
1	1914	4.7	2
1	1918	4.7	2
1	1920	4.7	2
1	1926	4.7	2
1	1930	4.7	2
1	1932	4.7	2
1	1936	4.7	2
1	2040	5.2	2
1	2042	5.2	2
1	2044	5.2	2
1	2048	5.2	2
1	2052	5.2	2
1	2056	5.2	2
1	2060	5.2	2
1	2062	5.2	2
1	2064	5.2	2
1	2066	5.2	2
1	2068	5.2	2
1	2070	5.2	2
1	2072	5.2	2
1	2074	5.2	2
1	2076	5.2	2
1	2080	5.2	2
1	2082	5.2	2
1	2088	5.2	2
1	2090	5.2	2
1	2092	5.2	2
1	2094	5.2	2
1	2100	5.2	2
1	2102	5.2	2
1	2106	5.2	2
1	2110	5.2	2
1	2112	5.2	2
1	2114	5.2	2
1	2116	5.2	2
1	2122	5.2	2
1	2126	5.2	2
1	2130	5.2	2
1	2230	5.7	2
1	2232	5.7	2
1	2234	5.7	2
1	2240	5.7	2
1	2252	5.7	2
1	2254	5.7	2
1	2256	5.7	2
1	2258	5.7	2
1	2260	5.7	2
1	2262	5.7	2
1	2264	5.7	2
1	2266	5.7	2
1	2268	5.7	2
1	2272	5.7	2
1	2274	5.7	2
1	2278	5.7	2
1	2280	5.7	2
1	2282	5.7	2
1	2286	5.7	2
1	2292	5.7	2
1	2294	5.7	2
1	2298	5.7	2
1	2302	5.7	2
1	2304	5.7	2
1	2308	5.7	2
1	2312	5.7	2
1	2314	5.7	2
1	2318	5.7	2
1	2320	5.7	2
1	2430	6.2	2
1	2438	6.2	2
1	2440	6.2	2
1	2442	6.2	2
1	2444	6.2	2
1	2448	6.2	2
1	2450	6.2	2
1	2454	6.2	2
1	2456	6.2	2
1	2458	6.2	2
1	2460	6.2	2
1	2462	6.2	3
1	2464	6.2	3
1	2468	6.2	3
1	2470	6.2	3
1	2472	6.2	3
1	2474	6.2	3
1	2476	6.2	3
1	2478	6.2	3
1	2484	6.2	3
1	2488	6.2	3
1	2490	6.2	3
1	2496	6.2	3
1	2498	6.2	3
1	2500	6.2	3
1	2502	6.2	3
1	2504	6.2	3
1	2514	6.2	3
1	2516	6.2	3
1	2520	6.2	3
1	2628	6.7	3
1	2630	6.7	3
1	2632	6.7	3
1	2634	6.7	3
1	2636	6.7	3
1	2640	6.7	3
1	2642	6.7	3
1	2644	6.7	3
1	2646	6.7	3
1	2648	6.7	3
1	2650	6.7	3
1	2652	6.7	3
1	2654	6.7	3
1	2656	6.7	3
1	2658	6.7	3
1	2662	6.7	3
1	2664	6.7	3
1	2666	6.7	3
1	2668	6.7	3
1	2674	6.7	3
1	2676	6.7	3
1	2680	6.7	3
1	2682	6.7	3
1	2686	6.7	3
1	2690	6.7	3
1	2692	6.7	3
1	2694	6.7	3
1	2696	6.7	3
1	2700	6.7	3
1	2702	6.7	3
1	2708	6.7	3
1	2712	6.7	3
1	2816	7.2	3
1	2818	7.2	3
1	2820	7.2	3
1	2822	7.2	3
1	2824	7.2	3
1	2826	7.2	3
1	2828	7.2	3
1	2830	7.2	3
1	2832	7.2	3
1	2836	7.2	3
1	2838	7.2	3
1	2840	7.2	3
1	2842	7.2	3
1	2844	7.2	3
1	2846	7.2	3
1	2848	7.2	3
1	2852	7.2	3
1	2854	7.2	3
1	2858	7.2	3
1	2860	7.2	3
1	2862	7.2	3
1	2864	7.2	3
1	2870	7.2	3
1	2872	7.2	3
1	2876	7.2	3
1	2878	7.2	3
1	2886	7.2	3
1	2888	7.2	3
1	2890	7.2	3
1	2892	7.2	3
1	2896	7.2	3
1	2898	7.2	3
1	2902	7.2	3
1	2904	7.2	3
1	2908	7.2	3
1	3008	7.7	3
1	3010	7.7	3
1	3012	7.7	3
1	3014	7.7	3
1	3016	7.7	3
1	3018	7.7	3
1	3020	7.7	3
1	3022	7.7	3
1	3024	7.7	3
1	3028	7.7	3
1	3030	7.7	3
1	3034	7.7	3
1	3036	7.7	3
1	3038	7.7	3
1	3040	7.7	3
1	3042	7.7	3
1	3044	7.7	3
1	3046	7.7	3
1	3050	7.7	3
1	3052	7.7	3
1	3056	7.7	3
1	3058	7.7	3
1	3062	7.7	3
1	3068	7.7	3
1	3070	7.7	3
1	3076	7.7	3
1	3078	7.7	3
1	3080	7.7	3
1	3082	7.7	3
1	3084	7.7	3
1	3088	7.7	3
1	3090	7.7	3
1	3096	7.7	3
1	3100	7.7	3
1	3204	8.2	3
1	3206	8.2	3
1	3208	8.2	3
1	3212	8.2	3
1	3214	8.2	3
1	3216	8.2	3
1	3218	8.2	3
1	3220	8.2	3
1	3226	8.2	3
1	3230	8.2	4
1	3232	8.2	4
1	3234	8.2	4
1	3236	8.2	4
1	3238	8.2	4
1	3240	8.2	4
1	3242	8.2	4
1	3244	8.2	4
1	3246	8.2	4
1	3248	8.2	4
1	3250	8.2	4
1	3252	8.2	4
1	3256	8.2	4
1	3258	8.2	4
1	3260	8.2	4
1	3266	8.2	4
1	3278	8.2	4
1	3280	8.2	4
1	3284	8.2	4
1	3286	8.2	4
1	3290	8.2	4
1	3292	8.2	4
1	3296	8.2	4
1	3396	8.7	4
1	3398	8.7	4
1	3400	8.7	4
1	3402	8.7	4
1	3404	8.7	4
1	3406	8.7	4
1	3408	8.7	4
1	3410	8.7	4
1	3412	8.7	4
1	3416	8.7	4
1	3418	8.7	4
1	3420	8.7	4
1	3422	8.7	4
1	3424	8.7	4
1	3426	8.7	4
1	3428	8.7	4
1	3430	8.7	4
1	3432	8.7	4
1	3434	8.7	4
1	3436	8.7	4
1	3438	8.7	4
1	3440	8.7	4
1	3442	8.7	4
1	3444	8.7	4
1	3446	8.7	4
1	3448	8.7	4
1	3450	8.7	4
1	3452	8.7	4
1	3456	8.7	4
1	3458	8.7	4
1	3466	8.7	4
1	3468	8.7	4
1	3472	8.7	4
1	3476	8.7	4
1	3478	8.7	4
1	3482	8.7	4
1	3484	8.7	4
1	3488	8.7	4
1	3592	9.2	4
1	3594	9.2	4
1	3596	9.2	4
1	3598	9.2	4
1	3602	9.2	4
1	3604	9.2	4
1	3608	9.2	4
1	3612	9.2	4
1	3614	9.2	4
1	3618	9.2	4
1	3620	9.2	4
1	3622	9.2	4
1	3624	9.2	4
1	3626	9.2	4
1	3628	9.2	4
1	3630	9.2	4
1	3632	9.2	4
1	3634	9.2	4
1	3636	9.2	4
1	3638	9.2	4
1	3640	9.2	4
1	3642	9.2	4
1	3646	9.2	4
1	3648	9.2	4
1	3652	9.2	4
1	3654	9.2	4
1	3658	9.2	4
1	3662	9.2	4
1	3664	9.2	4
1	3668	9.2	4
1	3672	9.2	4
1	3674	9.2	4
1	3678	9.2	4
1	3680	9.2	4
1	3684	9.2	4
1	3784	9.7	4
1	3786	9.7	4
1	3788	9.7	4
1	3790	9.7	4
1	3794	9.7	4
1	3796	9.7	4
1	3800	9.7	4
1	3804	9.7	4
1	3806	9.7	4
1	3810	9.7	4
1	3812	9.7	4
1	3814	9.7	4
1	3816	9.7	4
1	3818	9.7	4
1	3820	9.7	4
1	3822	9.7	4
1	3824	9.7	4
1	3826	9.7	4
1	3828	9.7	4
1	3830	9.7	4
1	3832	9.7	4
1	3834	9.7	4
1	3836	9.7	4
1	3838	9.7	4
1	3840	9.7	4
1	3844	9.7	4
1	3846	9.7	4
1	3854	9.7	4
1	3856	9.7	4
1	3858	9.7	4
1	3860	9.7	4
1	3862	9.7	4
1	3864	9.7	4
1	3866	9.7	4
1	3870	9.7	4
1	3872	9.7	4
1	3876	9.7	4
1	3980	10.2	5
1	3982	10.2	5
1	3984	10.2	5
1	3990	10.2	5
1	3992	10.2	5
1	3994	10.2	5
1	3996	10.2	5
1	4000	10.2	5
1	4002	10.2	5
1	4004	10.2	5
1	4006	10.2	5
1	4008	10.2	5
1	4010	10.2	5
1	4012	10.2	5
1	4014	10.2	5
1	4016	10.2	5
1	4018	10.2	5
1	4020	10.2	5
1	4022	10.2	5
1	4024	10.2	5
1	4026	10.2	5
1	4028	10.2	5
1	4030	10.2	5
1	4032	10.2	5
1	4034	10.2	5
1	4036	10.2	5
1	4040	10.2	5
1	4042	10.2	5
1	4046	10.2	5
1	4050	10.2	5
1	4052	10.2	5
1	4056	10.2	5
1	4060	10.2	5
1	4062	10.2	5
1	4068	10.2	5
1	4072	10.2	5
1	4172	10.7	5
1	4174	10.7	5
1	4176	10.7	5
1	4178	10.7	5
1	4180	10.7	5
1	4182	10.7	5
1	4184	10.7	5
1	4188	10.7	5
1	4192	10.7	5
1	4194	10.7	5
1	4196	10.7	5
1	4198	10.7	5
1	4200	10.7	5
1	4202	10.7	5
1	4204	10.7	5
1	4206	10.7	5
1	4208	10.7	5
1	4210	10.7	5
1	4212	10.7	5
1	4214	10.7	5
1	4216	10.7	5
1	4218	10.7	5
1	4220	10.7	5
1	4222	10.7	5
1	4226	10.7	5
1	4228	10.7	5
1	4232	10.7	5
1	4234	10.7	5
1	4238	10.7	5
1	4240	10.7	5
1	4242	10.7	5
1	4248	10.7	5
1	4250	10.7	5
1	4252	10.7	5
1	4254	10.7	5
1	4258	10.7	5
1	4260	10.7	5
1	4264	10.7	5
1	4370	11.2	5
1	4372	11.2	5
1	4376	11.2	5
1	4378	11.2	5
1	4380	11.2	5
1	4382	11.2	5
1	4384	11.2	5
1	4388	11.2	5
1	4390	11.2	5
1	4394	11.2	5
1	4396	11.2	5
1	4398	11.2	5
1	4400	11.2	5
1	4402	11.2	5
1	4404	11.2	5
1	4406	11.2	5
1	4408	11.2	5
1	4410	11.2	5
1	4412	11.2	5
1	4414	11.2	5
1	4416	11.2	5
1	4418	11.2	5
1	4422	11.2	5
1	4424	11.2	5
1	4428	11.2	5
1	4432	11.2	5
1	4434	11.2	5
1	4436	11.2	5
1	4438	11.2	5
1	4440	11.2	5
1	4442	11.2	5
1	4444	11.2	5
1	4446	11.2	5
1	4454	11.2	5
1	4456	11.2	5
1	4460	11.2	5
1	4562	11.7	5
1	4564	11.7	5
1	4570	11.7	5
1	4572	11.7	5
1	4576	11.7	5
1	4580	11.7	5
1	4582	11.7	5
1	4586	11.7	5
1	4588	11.7	5
1	4590	11.7	5
1	4592	11.7	5
1	4594	11.7	5
1	4596	11.7	5
1	4598	11.7	5
1	4600	11.7	5
1	4602	11.7	5
1	4604	11.7	5
1	4606	11.7	5
1	4608	11.7	5
1	4610	11.7	5
1	4614	11.7	5
1	4616	11.7	5
1	4620	11.7	5
1	4622	11.7	5
1	4630	11.7	5
1	4632	11.7	5
1	4634	11.7	6
1	4636	11.7	6
1	4640	11.7	6
1	4642	11.7	6
1	4646	11.7	6
1	4648	11.7	6
1	4652	11.7	6
2	118	0.2	0
2	166	0.2	0
2	168	0.2	0
2	294	0.7	0
2	306	0.7	0
2	310	0.7	0
2	312	0.7	0
2	358	0.7	0
2	360	0.7	0
2	380	0.7	0
2	494	1.2	0
2	508	1.2	0
2	538	1.2	0
2	544	1.2	0
2	552	1.2	0
2	562	1.2	0
2	568	1.2	0
2	576	1.2	0
2	688	1.7	0
2	690	1.7	0
2	698	1.7	0
2	738	1.7	0
2	740	1.7	1
2	748	1.7	1
2	754	1.7	1
2	766	1.7	1
2	882	2.2	1
2	894	2.2	1
2	932	2.2	1
2	936	2.2	1
2	1074	2.7	1
2	1086	2.7	1
2	1118	2.7	1
2	1126	2.7	1
2	1142	2.7	1
2	1268	3.2	1
2	1274	3.2	1
2	1282	3.2	1
2	1314	3.2	1
2	1328	3.2	1
2	1338	3.2	1
2	1454	3.7	1
2	1462	3.7	1
2	1472	3.7	1
2	1474	3.7	1
2	1512	3.7	1
2	1650	4.2	1
2	1670	4.2	2
2	1718	4.2	2
2	1726	4.2	2
2	1842	4.7	2
2	1862	4.7	2
2	1896	4.7	2
2	1900	4.7	2
2	1902	4.7	2
2	1910	4.7	2
2	1916	4.7	2
2	1934	4.7	2
2	2038	5.2	2
2	2050	5.2	2
2	2058	5.2	2
2	2086	5.2	2
2	2098	5.2	2
2	2120	5.2	2
2	2128	5.2	2
2	2238	5.7	2
2	2242	5.7	2
2	2244	5.7	2
2	2246	5.7	2
2	2248	5.7	2
2	2284	5.7	3
2	2306	5.7	3
2	2434	6.2	3
2	2436	6.2	3
2	2446	6.2	3
2	2510	6.2	3
2	2620	6.7	3
2	2622	6.7	3
2	2626	6.7	3
2	2638	6.7	3
2	2678	6.7	3
2	2706	6.7	3
2	2710	6.7	3
2	2834	7.2	3
2	2882	7.2	3
2	2884	7.2	3
2	3026	7.7	3
2	3054	7.7	3
2	3064	7.7	3
2	3074	7.7	3
2	3094	7.7	3
2	3224	8.2	3
2	3264	8.2	3
2	3270	8.2	3
2	3272	8.2	4
2	3274	8.2	4
2	3276	8.2	4
2	3414	8.7	4
2	3462	8.7	4
2	3464	8.7	4
2	3486	8.7	4
2	3600	9.2	4
2	3606	9.2	4
2	3610	9.2	4
2	3650	9.2	4
2	3660	9.2	4
2	3666	9.2	4
2	3682	9.2	4
2	3798	9.7	4
2	3802	9.7	4
2	4048	10.2	4
2	4054	10.2	4
2	4058	10.2	4
2	4066	10.2	4
2	4186	10.7	4
2	4190	10.7	5
2	4236	10.7	5
2	4244	10.7	5
2	4246	10.7	5
2	4368	11.2	5
2	4374	11.2	5
2	4386	11.2	5
2	4448	11.2	5
2	4458	11.2	5
2	4560	11.7	5
2	4566	11.7	5
2	4568	11.7	5
2	4574	11.7	5
2	4578	11.7	5
2	4650	11.7	5

