version 2
run NaiveUniformMicrogridNetwork-0-20180406-11:24:49-47728
attr configname NaiveUniformMicrogridNetwork
attr datetime 20180406-11:24:49
attr experiment NaiveUniformMicrogridNetwork
attr inifile omnetpp.ini
attr iterationvars ""
attr iterationvarsf ""
attr measurement ""
attr network NaiveUniformMicrogridNetwork
attr processid 47728
attr repetition 0
attr replication #0
attr resultdir results
attr runnumber 0
attr seedset 0

vector 0 NaiveUniformMicrogridNetwork.macro[0] timeSensitiveQueueMsgTime:vector ETV
attr interpolationmode sample-hold
attr title "timeSensitiveQueueMsgTime, vector"
0	25	0.2	0
0	26	0.2	0
0	27	0.2	0
0	28	0.2	0
0	29	0.2	0
0	30	0.2	0
0	31	0.2	0
0	32	0.2	0
0	33	0.2	0
0	34	0.2	0
0	35	0.2	0
0	36	0.2	0
0	61	0.7	0
0	62	0.7	0
0	63	0.7	0
0	64	0.7	0
0	65	0.7	0
0	66	0.7	0
0	67	0.7	0
0	68	0.7	0
0	69	0.7	0
0	70	0.7	0
0	71	0.7	0
0	72	0.7	0
0	97	1.2	0
0	98	1.2	0
0	99	1.2	0
0	100	1.2	0
0	101	1.2	0
0	102	1.2	0
0	103	1.2	0
0	104	1.2	0
0	105	1.2	0
0	106	1.2	0
0	107	1.2	0
0	108	1.2	0
0	133	1.7	0
0	134	1.7	0
0	135	1.7	0
0	136	1.7	0
0	137	1.7	0
0	138	1.7	0
0	139	1.7	0
0	140	1.7	0
0	141	1.7	0
0	142	1.7	0
0	143	1.7	0
0	144	1.7	0
0	169	2.2	0
0	170	2.2	1
0	171	2.2	1

