version 2
run NaiveUniformMicrogridNetwork-0-20180406-13:16:06-48431
attr configname NaiveUniformMicrogridNetwork
attr datetime 20180406-13:16:06
attr experiment NaiveUniformMicrogridNetwork
attr inifile omnetpp.ini
attr iterationvars ""
attr iterationvarsf ""
attr measurement ""
attr network NaiveUniformMicrogridNetwork
attr processid 48431
attr repetition 0
attr replication #0
attr resultdir results
attr runnumber 0
attr seedset 0

vector 0 NaiveUniformMicrogridNetwork.macro[0] timeSensitiveQueueMsgTime:vector ETV
attr interpolationmode sample-hold
attr title "timeSensitiveQueueMsgTime, vector"
0	73	1.5	1
0	74	1.5	1
0	75	1.5	1
0	76	1.5	1
0	77	1.5	1
0	78	1.5	1
0	79	1.5	1
0	80	1.5	1
0	81	1.5	1
0	82	1.5	1
0	83	1.5	1
0	84	1.5	1
0	109	2	1
0	110	2	1
0	111	2	1
0	112	2	1
0	113	2	1
0	114	2	1
0	115	2	1
0	116	2	1
0	117	2	1
0	118	2	1
0	119	2	1
0	120	2	1
0	145	2.5	1
0	146	2.5	1
0	147	2.5	1
0	148	2.5	1
0	149	2.5	1
0	150	2.5	1
0	151	2.5	1
0	152	2.5	1
0	153	2.5	1
0	154	2.5	1
0	155	2.5	1
0	156	2.5	2
0	181	3	2
0	182	3	2
0	183	3	2
0	184	3	2
0	185	3	2
0	186	3	2
0	187	3	2
0	188	3	2
0	189	3	2
0	190	3	2
0	191	3	2
0	192	3	2
0	217	3.5	2
0	218	3.5	2
0	219	3.5	2
0	220	3.5	2
0	221	3.5	2
0	222	3.5	2
0	223	3.5	2
0	224	3.5	2
0	225	3.5	2
0	226	3.5	2
0	227	3.5	2
0	228	3.5	2
0	253	4	2
0	254	4	2
0	255	4	2
0	256	4	2
0	257	4	2
0	258	4	2
0	259	4	2
0	260	4	2
0	261	4	2
0	262	4	2
0	263	4	2
0	264	4	2
0	289	4.5	2
0	290	4.5	2
0	291	4.5	2
0	292	4.5	2
0	293	4.5	2
0	294	4.5	2
0	295	4.5	2
0	296	4.5	2
0	297	4.5	2
0	298	4.5	2
0	299	4.5	2
0	300	4.5	3
0	325	5	3
0	326	5	3
0	327	5	3
0	328	5	3
0	329	5	3
0	330	5	3
0	331	5	3
0	332	5	3
0	333	5	3
0	334	5	3
0	335	5	3
0	336	5	3
0	361	5.5	3
0	362	5.5	3
0	363	5.5	3
0	364	5.5	3
0	365	5.5	3
0	366	5.5	3
0	367	5.5	3
0	368	5.5	3
0	369	5.5	3
0	370	5.5	3
0	371	5.5	3
0	372	5.5	3
0	397	6	3
0	398	6	3
0	399	6	3
0	400	6	3
0	401	6	3
0	402	6	3
0	403	6	3
0	404	6	3
0	405	6	3
0	406	6	3
0	407	6	3
0	408	6	3
0	433	6.5	3
0	434	6.5	3
0	435	6.5	3
0	436	6.5	3
0	437	6.5	3
0	438	6.5	3
0	439	6.5	3
0	440	6.5	3
0	441	6.5	3
0	442	6.5	3
0	443	6.5	3
0	444	6.5	4
0	469	7	4
0	470	7	4
0	471	7	4
0	472	7	4
0	473	7	4
0	474	7	4
0	475	7	4
0	476	7	4
0	477	7	4
0	478	7	4
0	479	7	4
0	480	7	4
0	505	7.5	4
0	506	7.5	4
0	507	7.5	4
0	508	7.5	4
0	509	7.5	4
0	510	7.5	4
0	511	7.5	4
0	512	7.5	4
0	513	7.5	4
0	514	7.5	4
0	515	7.5	4
0	516	7.5	4
0	541	8	4
0	542	8	4
0	543	8	4
0	544	8	4
0	545	8	4
0	546	8	4
0	547	8	4
0	548	8	4
0	549	8	4
0	550	8	4
0	551	8	4
0	552	8	4
0	577	8.5	4
0	578	8.5	4
0	579	8.5	4
0	580	8.5	4
0	581	8.5	4
0	582	8.5	4
0	583	8.5	4
0	584	8.5	4
0	585	8.5	4
0	586	8.5	4
0	587	8.5	4
0	588	8.5	5
0	613	9	5
0	614	9	5
0	615	9	5
0	616	9	5
0	617	9	5
0	618	9	5
0	619	9	5
0	620	9	5
0	621	9	5
0	622	9	5
0	623	9	5
0	624	9	5
0	649	9.5	5
0	650	9.5	5
0	651	9.5	5
0	652	9.5	5
0	653	9.5	5
0	654	9.5	5
0	655	9.5	5
0	656	9.5	5
0	657	9.5	5
0	658	9.5	5
0	659	9.5	5
0	660	9.5	5
0	685	10	5
0	686	10	5
0	687	10	5
0	688	10	5
0	689	10	5
0	690	10	5
0	691	10	5
0	692	10	5
0	693	10	5
0	694	10	5
0	695	10	5
0	696	10	5
0	721	10.5	5
0	722	10.5	5
0	723	10.5	5
0	724	10.5	5
0	725	10.5	5
0	726	10.5	5
0	727	10.5	5
0	728	10.5	5
0	729	10.5	5
0	730	10.5	5
0	731	10.5	5
0	732	10.5	6
0	757	11	6
0	758	11	6
0	759	11	6
0	760	11	6
0	761	11	6
0	762	11	6
0	763	11	6
0	764	11	6
0	765	11	6
0	766	11	6
0	767	11	6
0	768	11	6
0	793	11.5	6
0	794	11.5	6
0	795	11.5	6
0	796	11.5	6
0	797	11.5	6
0	798	11.5	6
0	799	11.5	6
0	800	11.5	6
0	801	11.5	6
0	802	11.5	6
0	803	11.5	6
0	804	11.5	6
0	817	12	6
0	818	12	6
0	819	12	6
0	820	12	6
0	821	12	6
0	822	12	6
0	823	12	6
0	824	12	6
0	825	12	6
0	826	12	6
0	827	12	6
0	828	12	6
0	841	12.5	6
0	842	12.5	6
0	843	12.5	6
0	844	12.5	6
0	845	12.5	6
0	846	12.5	6
0	847	12.5	6
0	848	12.5	6
0	849	12.5	6
0	850	12.5	6
0	851	12.5	6
0	852	12.5	7
0	853	13	7
0	854	13	7
0	855	13	7
0	856	13	7
0	857	13	7
0	858	13	7
0	859	13	7
0	860	13	7
0	861	13	7
0	862	13	7
0	863	13	7
0	864	13	7

